 Entering Gaussian System, Link 0=g16
 Input=gauss.gjf
 Output=gauss.log
 Initial command:
 /public/home/lyb//g16/l1.exe "/tmp/Gau-303950.inp" -scrdir="/tmp/"
 Entering Link 1 = /public/home/lyb//g16/l1.exe PID=    303951.
  
 Copyright (c) 1988,1990,1992,1993,1995,1998,2003,2009,2016,
            Gaussian, Inc.  All Rights Reserved.
  
 This is part of the Gaussian(R) 16 program.  It is based on
 the Gaussian(R) 09 system (copyright 2009, Gaussian, Inc.),
 the Gaussian(R) 03 system (copyright 2003, Gaussian, Inc.),
 the Gaussian(R) 98 system (copyright 1998, Gaussian, Inc.),
 the Gaussian(R) 94 system (copyright 1995, Gaussian, Inc.),
 the Gaussian 92(TM) system (copyright 1992, Gaussian, Inc.),
 the Gaussian 90(TM) system (copyright 1990, Gaussian, Inc.),
 the Gaussian 88(TM) system (copyright 1988, Gaussian, Inc.),
 the Gaussian 86(TM) system (copyright 1986, Carnegie Mellon
 University), and the Gaussian 82(TM) system (copyright 1983,
 Carnegie Mellon University). Gaussian is a federally registered
 trademark of Gaussian, Inc.
  
 This software contains proprietary and confidential information,
 including trade secrets, belonging to Gaussian, Inc.
  
 This software is provided under written license and may be
 used, copied, transmitted, or stored only in accord with that
 written license.
  
 The following legend is applicable only to US Government
 contracts under FAR:
  
                    RESTRICTED RIGHTS LEGEND
  
 Use, reproduction and disclosure by the US Government is
 subject to restrictions as set forth in subparagraphs (a)
 and (c) of the Commercial Computer Software - Restricted
 Rights clause in FAR 52.227-19.
  
 Gaussian, Inc.
 340 Quinnipiac St., Bldg. 40, Wallingford CT 06492
  
  
 ---------------------------------------------------------------
 Warning -- This program may not be used in any manner that
 competes with the business of Gaussian, Inc. or will provide
 assistance to any competitor of Gaussian, Inc.  The licensee
 of this program is prohibited from giving any competitor of
 Gaussian, Inc. access to this program.  By using this program,
 the user acknowledges that Gaussian, Inc. is engaged in the
 business of creating and licensing software in the field of
 computational chemistry and represents and warrants to the
 licensee that it is not a competitor of Gaussian, Inc. and that
 it will not use this program in any manner prohibited above.
 ---------------------------------------------------------------
  

 Cite this work as:
 Gaussian 16, Revision A.03,
 M. J. Frisch, G. W. Trucks, H. B. Schlegel, G. E. Scuseria, 
 M. A. Robb, J. R. Cheeseman, G. Scalmani, V. Barone, 
 G. A. Petersson, H. Nakatsuji, X. Li, M. Caricato, A. V. Marenich, 
 J. Bloino, B. G. Janesko, R. Gomperts, B. Mennucci, H. P. Hratchian, 
 J. V. Ortiz, A. F. Izmaylov, J. L. Sonnenberg, D. Williams-Young, 
 F. Ding, F. Lipparini, F. Egidi, J. Goings, B. Peng, A. Petrone, 
 T. Henderson, D. Ranasinghe, V. G. Zakrzewski, J. Gao, N. Rega, 
 G. Zheng, W. Liang, M. Hada, M. Ehara, K. Toyota, R. Fukuda, 
 J. Hasegawa, M. Ishida, T. Nakajima, Y. Honda, O. Kitao, H. Nakai, 
 T. Vreven, K. Throssell, J. A. Montgomery, Jr., J. E. Peralta, 
 F. Ogliaro, M. J. Bearpark, J. J. Heyd, E. N. Brothers, K. N. Kudin, 
 V. N. Staroverov, T. A. Keith, R. Kobayashi, J. Normand, 
 K. Raghavachari, A. P. Rendell, J. C. Burant, S. S. Iyengar, 
 J. Tomasi, M. Cossi, J. M. Millam, M. Klene, C. Adamo, R. Cammi, 
 J. W. Ochterski, R. L. Martin, K. Morokuma, O. Farkas, 
 J. B. Foresman, and D. J. Fox, Gaussian, Inc., Wallingford CT, 2016.
 
 ******************************************
 Gaussian 16:  EM64L-G16RevA.03 25-Dec-2016
                 3-Apr-2021 
 ******************************************
 %chk=gauss.chk
 %nprocs=8
 Will use up to    8 processors via shared memory.
 %mem=6GB
 -------------------------------------------------------------
 #p force b3lyp em=gd3 td=(nstates=6,root=1) 6-31G* guess=read
 -------------------------------------------------------------
 1/10=7,30=1,38=1/1,3;
 2/12=2,17=6,18=5,40=1/2;
 3/5=1,6=6,7=1,11=9,25=1,30=1,71=1,74=-5,116=-2,124=31/1,2,3,8;
 4/5=1/1;
 5/5=2,38=6/2;
 8/6=1,10=2,107=1,108=6/1;
 9/8=1,15=2,41=6,42=1,70=2/14;
 10/5=4,28=1/2;
 6/7=2,8=2,9=2,10=2,18=1/1;
 7/12=6,13=5,14=1,29=1/1,2,3,16;
 1/10=7,30=1/3;
 99//99;
 Leave Link    1 at Sat Apr  3 17:54:08 2021, MaxMem=   805306368 cpu:               0.3 elap:               0.0
 (Enter /public/home/lyb//g16/l101.exe)
 ------------
 This is test
 ------------
 Symbolic Z-matrix:
 Charge =  0 Multiplicity = 1
 C                    -4.10209   0.25311   0.05837 
 C                    -3.10056  -0.78944  -0.00249 
 C                    -1.73677  -0.34873   0.14722 
 C                    -1.3566    0.92754   0.30615 
 C                    -2.32311   2.01466   0.47814 
 C                    -3.72596   1.58485   0.23126 
 H                    -5.07154  -0.07767   0.03784 
 H                    -3.44569  -1.8652   -0.20373 
 C                     0.12553   1.20057   0.26979 
 H                    -4.51787   2.29802   0.37695 
 C                     0.48251  -1.16973  -0.08522 
 H                     1.03561  -2.07332  -0.26392 
 O                     0.5416    2.42537   0.4092 
 O                    -0.86307  -1.35236   0.09403 
 O                    -2.06337   3.11336   0.81083 
 H                    -0.2909    2.91181   0.60149 
 C                     2.43941   0.38806   0.05411 
 C                     3.26476  -0.52785   0.73334 
 C                     3.03304   1.41534  -0.69894 
 C                     4.66736  -0.36439   0.74184 
 H                     2.85137  -1.3054    1.364 
 C                     4.42472   1.56374  -0.6553 
 H                     2.44698   2.05692  -1.29648 
 C                     5.2236    0.73523   0.10572 
 H                     5.35758  -1.04614   1.33717 
 H                     4.83135   2.43778  -1.2374 
 H                     6.27489   0.91769   0.02198 
 C                     1.02273   0.15652   0.11276 
 
 ITRead=  0  0  0  0  0  0  0  0  0  0  0  0  0  0  0  0  0  0  0  0
 ITRead=  0  0  0  0  0  0  0  0
 MicOpt= -1 -1 -1 -1 -1 -1 -1 -1 -1 -1 -1 -1 -1 -1 -1 -1 -1 -1 -1 -1
 MicOpt= -1 -1 -1 -1 -1 -1 -1 -1
 NAtoms=     28 NQM=       28 NQMF=       0 NMMI=      0 NMMIF=      0
                NMic=       0 NMicF=      0.
                    Isotopes and Nuclear Properties:
 (Nuclear quadrupole moments (NQMom) in fm**2, nuclear magnetic moments (NMagM)
  in nuclear magnetons)

  Atom         1           2           3           4           5           6           7           8           9          10
 IAtWgt=          12          12          12          12          12          12           1           1          12           1
 AtmWgt=  12.0000000  12.0000000  12.0000000  12.0000000  12.0000000  12.0000000   1.0078250   1.0078250  12.0000000   1.0078250
 NucSpn=           0           0           0           0           0           0           1           1           0           1
 AtZEff=  -0.0000000  -0.0000000  -0.0000000  -0.0000000  -0.0000000  -0.0000000  -0.0000000  -0.0000000  -0.0000000  -0.0000000
 NQMom=    0.0000000   0.0000000   0.0000000   0.0000000   0.0000000   0.0000000   0.0000000   0.0000000   0.0000000   0.0000000
 NMagM=    0.0000000   0.0000000   0.0000000   0.0000000   0.0000000   0.0000000   2.7928460   2.7928460   0.0000000   2.7928460
 AtZNuc=   6.0000000   6.0000000   6.0000000   6.0000000   6.0000000   6.0000000   1.0000000   1.0000000   6.0000000   1.0000000

  Atom        11          12          13          14          15          16          17          18          19          20
 IAtWgt=          12           1          16          16          16           1          12          12          12          12
 AtmWgt=  12.0000000   1.0078250  15.9949146  15.9949146  15.9949146   1.0078250  12.0000000  12.0000000  12.0000000  12.0000000
 NucSpn=           0           1           0           0           0           1           0           0           0           0
 AtZEff=  -0.0000000  -0.0000000  -0.0000000  -0.0000000  -0.0000000  -0.0000000  -0.0000000  -0.0000000  -0.0000000  -0.0000000
 NQMom=    0.0000000   0.0000000   0.0000000   0.0000000   0.0000000   0.0000000   0.0000000   0.0000000   0.0000000   0.0000000
 NMagM=    0.0000000   2.7928460   0.0000000   0.0000000   0.0000000   2.7928460   0.0000000   0.0000000   0.0000000   0.0000000
 AtZNuc=   6.0000000   1.0000000   8.0000000   8.0000000   8.0000000   1.0000000   6.0000000   6.0000000   6.0000000   6.0000000

  Atom        21          22          23          24          25          26          27          28
 IAtWgt=           1          12           1          12           1           1           1          12
 AtmWgt=   1.0078250  12.0000000   1.0078250  12.0000000   1.0078250   1.0078250   1.0078250  12.0000000
 NucSpn=           1           0           1           0           1           1           1           0
 AtZEff=  -0.0000000  -0.0000000  -0.0000000  -0.0000000  -0.0000000  -0.0000000  -0.0000000  -0.0000000
 NQMom=    0.0000000   0.0000000   0.0000000   0.0000000   0.0000000   0.0000000   0.0000000   0.0000000
 NMagM=    2.7928460   0.0000000   2.7928460   0.0000000   2.7928460   2.7928460   2.7928460   0.0000000
 AtZNuc=   1.0000000   6.0000000   1.0000000   6.0000000   1.0000000   1.0000000   1.0000000   6.0000000
 Leave Link  101 at Sat Apr  3 17:54:08 2021, MaxMem=   805306368 cpu:               0.8 elap:               0.1
 (Enter /public/home/lyb//g16/l103.exe)

 GradGradGradGradGradGradGradGradGradGradGradGradGradGradGradGradGradGrad
 Berny optimization.
 Initialization pass.
 Trust Radius=3.00D-01 FncErr=1.00D-07 GrdErr=1.00D-07 EigMax=2.50D+02 EigMin=1.00D-04
 Number of steps in this run=      2 maximum allowed number of steps=      2.
 GradGradGradGradGradGradGradGradGradGradGradGradGradGradGradGradGradGrad

 Leave Link  103 at Sat Apr  3 17:54:08 2021, MaxMem=   805306368 cpu:               0.2 elap:               0.0
 (Enter /public/home/lyb//g16/l202.exe)
                          Input orientation:                          
 ---------------------------------------------------------------------
 Center     Atomic      Atomic             Coordinates (Angstroms)
 Number     Number       Type             X           Y           Z
 ---------------------------------------------------------------------
      1          6           0       -4.102091    0.253111    0.058368
      2          6           0       -3.100555   -0.789441   -0.002485
      3          6           0       -1.736767   -0.348730    0.147220
      4          6           0       -1.356597    0.927537    0.306153
      5          6           0       -2.323110    2.014655    0.478139
      6          6           0       -3.725955    1.584847    0.231264
      7          1           0       -5.071535   -0.077666    0.037843
      8          1           0       -3.445693   -1.865196   -0.203732
      9          6           0        0.125525    1.200574    0.269785
     10          1           0       -4.517866    2.298019    0.376949
     11          6           0        0.482511   -1.169731   -0.085218
     12          1           0        1.035610   -2.073323   -0.263921
     13          8           0        0.541595    2.425368    0.409200
     14          8           0       -0.863072   -1.352358    0.094030
     15          8           0       -2.063368    3.113360    0.810829
     16          1           0       -0.290902    2.911815    0.601489
     17          6           0        2.439413    0.388058    0.054111
     18          6           0        3.264765   -0.527848    0.733340
     19          6           0        3.033036    1.415339   -0.698945
     20          6           0        4.667357   -0.364386    0.741836
     21          1           0        2.851366   -1.305395    1.363995
     22          6           0        4.424724    1.563738   -0.655296
     23          1           0        2.446976    2.056923   -1.296477
     24          6           0        5.223602    0.735227    0.105724
     25          1           0        5.357583   -1.046139    1.337168
     26          1           0        4.831355    2.437784   -1.237404
     27          1           0        6.274894    0.917691    0.021983
     28          6           0        1.022730    0.156519    0.112758
 ---------------------------------------------------------------------
                    Distance matrix (angstroms):
                    1          2          3          4          5
     1  C    0.000000
     2  C    1.446959   0.000000
     3  C    2.442307   1.441026   0.000000
     4  C    2.837954   2.466710   1.341136   0.000000
     5  C    2.538507   2.949300   2.457416   1.464770   0.000000
     6  C    1.394594   2.466375   2.775365   2.459984   1.487836
     7  H    1.024528   2.095951   3.347554   3.857874   3.482171
     8  H    2.233109   1.147550   2.311550   3.524721   4.096143
     9  C    4.337640   3.800248   2.425593   1.507501   2.588813
    10  H    2.110927   3.418355   3.846111   3.446281   2.215285
    11  C    4.802465   3.604141   2.377660   2.816739   4.281261
    12  H    5.649082   4.338728   3.290795   3.879793   5.342585
    13  O    5.138639   4.875422   3.599332   2.420176   2.894818
    14  O    3.615252   2.309225   1.331706   2.342324   3.689990
    15  O    3.592160   4.119355   3.540213   2.352030   1.176988
    16  H    4.678552   4.685961   3.595558   2.271627   2.224855
    17  C    6.542897   5.664005   4.241699   3.842428   5.050469
    18  C    7.438820   6.413047   5.038943   4.863910   6.144411
    19  C    7.268723   6.554926   5.155478   4.529575   5.516612
    20  C    8.817689   7.815059   6.431689   6.176318   7.388910
    21  H    7.244596   6.128527   4.842181   4.879751   6.211495
    22  C    8.656421   7.911601   6.501195   5.895151   6.857205
    23  H    6.926732   6.367991   5.037374   4.279148   5.089673
    24  C    9.338267   8.463327   7.044389   6.586059   7.663451
    25  H    9.633733   8.567419   7.227182   7.073797   8.312607
    26  H    9.287533   8.651890   7.267879   6.553943   7.369429
    27  H   10.398308   9.529635   8.112104   7.636787   8.679694
    28  C    5.126020   4.231974   2.805582   2.508599   3.844583
                    6          7          8          9         10
     6  C    0.000000
     7  H    2.147545   0.000000
     8  H    3.488634   2.428370   0.000000
     9  C    3.870795   5.356971   4.730409   0.000000
    10  H    1.075622   2.462809   4.338100   4.772521   0.000000
    11  C    5.039747   5.661729   3.991054   2.423182   6.102677
    12  H    6.024941   6.432023   4.486537   3.439694   7.096509
    13  O    4.353174   6.157136   5.889236   1.301027   5.061167
    14  O    4.103913   4.397631   2.649830   2.743297   5.173279
    15  O    2.331618   4.453002   5.265565   2.956811   2.622516
    16  H    3.701013   5.666494   5.781083   1.792145   4.277194
    17  C    6.282949   7.525391   6.306989   2.461864   7.221904
    18  C    7.320227   8.377367   6.906291   3.613468   8.287453
    19  C    6.824806   8.273814   7.278810   3.072162   7.678072
    20  C    8.631795   9.768512   8.304704   4.827025   9.570259
    21  H    7.273083   8.126399   6.513378   3.861008   8.262229
    22  C    8.198781   9.661966   8.596800   4.412570   9.031867
    23  H    6.376671   7.928739   7.162448   2.928420   7.167113
    24  C    8.990672  10.327403   9.056194   5.121899   9.869756
    25  H    9.521333  10.554273   8.974569   5.793225  10.470430
    26  H    8.724221  10.296649   9.385821   5.093833   9.488604
    27  H   10.025262  11.390015  10.113616   6.160857  10.886459
    28  C    4.960260   6.099224   4.914704   1.385527   5.945925
                   11         12         13         14         15
    11  C    0.000000
    12  H    1.074398   0.000000
    13  O    3.629418   4.575517   0.000000
    14  O    1.369700   2.062259   4.042726   0.000000
    15  O    5.062535   6.136809   2.724055   4.679439   0.000000
    16  H    4.210552   5.230694   0.983187   4.332212   1.796129
    17  C    2.505111   2.851351   2.806854   3.733236   5.317417
    18  C    2.970351   2.890009   4.030162   4.257649   6.453945
    19  C    3.682991   4.043478   2.907821   4.844442   5.579967
    20  C    4.341144   4.137825   4.991521   5.655209   7.576420
    21  H    2.780305   2.556715   4.490575   3.925820   6.632194
    22  C    4.830930   4.986730   4.117554   6.084890   6.829802
    23  H    3.967060   4.485204   2.583711   4.951073   5.089205
    24  C    5.113048   5.056072   4.986969   6.434730   7.697572
    25  H    5.079840   4.722080   6.008845   6.351040   8.523437
    26  H    5.766640   5.975402   4.594943   6.968816   7.224186
    27  H    6.157964   6.039702   5.940854   7.490586   8.658514
    28  C    1.445673   2.261470   2.338171   2.415225   4.330614
                   16         17         18         19         20
    16  H    0.000000
    17  C    3.758136   0.000000
    18  C    4.948882   1.407637   0.000000
    19  C    3.870289   1.405271   2.425100   0.000000
    20  C    5.944537   2.450076   1.412111   2.813232   0.000000
    21  H    5.314144   2.180203   1.083146   3.419228   2.137850
    22  C    5.062998   2.413906   2.765600   1.400258   2.393431
    23  H    3.439345   2.146917   3.386735   1.054581   3.866206
    24  C    5.949207   2.806225   2.413773   2.430765   1.386793
    25  H    6.936282   3.495550   2.239000   3.950714   1.138253
    26  H    5.462943   3.404522   3.890116   2.137588   3.434595
    27  H    6.886366   3.872010   3.414160   3.358130   2.178551
    28  C    3.091301   1.436676   2.424912   2.506953   3.735021
                   21         22         23         24         25
    21  H    0.000000
    22  C    3.845116   0.000000
    23  H    4.306603   2.136780   0.000000
    24  C    3.372668   1.379778   3.379748   0.000000
    25  H    2.519734   3.413444   5.003670   2.169717   0.000000
    26  H    4.969811   1.126124   2.415327   2.203758   4.363835
    27  H    4.296935   2.073455   4.205846   1.070290   2.535310
    28  C    2.654561   3.760815   2.761513   4.240551   4.662243
                   26         27         28
    26  H    0.000000
    27  H    2.445515   0.000000
    28  C    4.640337   5.307810   0.000000
 Stoichiometry    C15H10O3
 Framework group  C1[X(C15H10O3)]
 Deg. of freedom    78
 Full point group                 C1      NOp   1
 Largest Abelian subgroup         C1      NOp   1
 Largest concise Abelian subgroup C1      NOp   1
                         Standard orientation:                         
 ---------------------------------------------------------------------
 Center     Atomic      Atomic             Coordinates (Angstroms)
 Number     Number       Type             X           Y           Z
 ---------------------------------------------------------------------
      1          6           0        4.403066   -0.582740    0.221979
      2          6           0        3.357067   -1.582362    0.240149
      3          6           0        2.017408   -1.081394    0.064366
      4          6           0        1.695777    0.212353   -0.081983
      5          6           0        2.711508    1.259783   -0.211336
      6          6           0        4.088168    0.766471    0.062726
      7          1           0        5.356802   -0.954950    0.260780
      8          1           0        3.651122   -2.674991    0.431368
      9          6           0        0.226097    0.547887   -0.077582
     10          1           0        4.913010    1.447387   -0.051075
     11          6           0       -0.239831   -1.810395    0.227744
     12          1           0       -0.835055   -2.692274    0.377181
     13          8           0       -0.134066    1.791436   -0.206192
     14          8           0        1.100936   -2.047476    0.078704
     15          8           0        2.507059    2.373802   -0.531434
     16          1           0        0.722900    2.244877   -0.369464
     17          6           0       -2.124850   -0.168323    0.066848
     18          6           0       -2.970701   -1.037051   -0.648199
     19          6           0       -2.693406    0.871140    0.822524
     20          6           0       -4.364445   -0.813656   -0.688557
     21          1           0       -2.574689   -1.821307   -1.281699
     22          6           0       -4.076003    1.079588    0.747041
     23          1           0       -2.096092    1.477377    1.445287
     24          6           0       -4.889631    0.298350   -0.047606
     25          1           0       -5.067554   -1.455602   -1.312385
     26          1           0       -4.459934    1.960734    1.333838
     27          1           0       -5.934045    0.524222    0.013242
     28          6           0       -0.718208   -0.459246    0.039272
 ---------------------------------------------------------------------
 Rotational constants (GHZ):           1.1230960           0.2487870           0.2106958
 Leave Link  202 at Sat Apr  3 17:54:08 2021, MaxMem=   805306368 cpu:               0.1 elap:               0.0
 (Enter /public/home/lyb//g16/l301.exe)
 Standard basis: 6-31G(d) (6D, 7F)
 Ernie: Thresh=  0.10000D-02 Tol=  0.10000D-05 Strict=F.
 There are   290 symmetry adapted cartesian basis functions of A   symmetry.
 There are   290 symmetry adapted basis functions of A   symmetry.
   290 basis functions,   544 primitive gaussians,   290 cartesian basis functions
    62 alpha electrons       62 beta electrons
       nuclear repulsion energy      1204.4356660145 Hartrees.
 IExCor=  402 DFT=T Ex+Corr=B3LYP ExCW=0 ScaHFX=  0.200000
 ScaDFX=  0.800000  0.720000  1.000000  0.810000 ScalE2=  1.000000  1.000000
 IRadAn=      5 IRanWt=     -1 IRanGd=            0 ICorTp=0 IEmpDi=131
 NAtoms=   28 NActive=   28 NUniq=   28 SFac= 1.00D+00 NAtFMM=   60 NAOKFM=F Big=F
 Integral buffers will be    131072 words long.
 Regular integral format.
 Two-electron integral symmetry is turned on.
 R6Disp:  Grimme-D3 Dispersion energy=       -0.0244146245 Hartrees.
 Nuclear repulsion after empirical dispersion term =     1204.4112513900 Hartrees.
 Leave Link  301 at Sat Apr  3 17:54:08 2021, MaxMem=   805306368 cpu:               0.5 elap:               0.1
 (Enter /public/home/lyb//g16/l302.exe)
 NPDir=0 NMtPBC=     1 NCelOv=     1 NCel=       1 NClECP=     1 NCelD=      1
         NCelK=      1 NCelE2=     1 NClLst=     1 CellRange=     0.0.
 One-electron integrals computed using PRISM.
 One-electron integral symmetry used in STVInt
 NBasis=   290 RedAO= T EigKep=  5.09D-04  NBF=   290
 NBsUse=   290 1.00D-06 EigRej= -1.00D+00 NBFU=   290
 Precomputing XC quadrature grid using
 IXCGrd= 4 IRadAn=           5 IRanWt=          -1 IRanGd=           0 AccXCQ= 0.00D+00.
 Generated NRdTot=       0 NPtTot=           0 NUsed=           0 NTot=          32
 NSgBfM=   289   289   289   289   289 MxSgAt=    28 MxSgA2=    28.
 Leave Link  302 at Sat Apr  3 17:54:08 2021, MaxMem=   805306368 cpu:               3.2 elap:               0.4
 (Enter /public/home/lyb//g16/l303.exe)
 DipDrv:  MaxL=1.
 Leave Link  303 at Sat Apr  3 17:54:08 2021, MaxMem=   805306368 cpu:               0.3 elap:               0.1
 (Enter /public/home/lyb//g16/l308.exe)
 Leave Link  308 at Sat Apr  3 17:54:08 2021, MaxMem=   805306368 cpu:               0.3 elap:               0.1
 (Enter /public/home/lyb//g16/l401.exe)
 Initial guess from the checkpoint file:  "gauss.chk"
 B after Tr=     0.000000   -0.000000    0.000000
         Rot=    1.000000    0.000023   -0.000037    0.000116 Ang=   0.01 deg.
 Guess basis will be translated and rotated to current coordinates.
 JPrj=2 DoOrth=T DoCkMO=T.
 Leave Link  401 at Sat Apr  3 17:54:09 2021, MaxMem=   805306368 cpu:               2.0 elap:               0.3
 (Enter /public/home/lyb//g16/l502.exe)
 Integral symmetry usage will be decided dynamically.
 Closed shell SCF:
 Using DIIS extrapolation, IDIIS=  1040.
 NGot=   805306368 LenX=   805132742 LenY=   805048201
 Requested convergence on RMS density matrix=1.00D-08 within 128 cycles.
 Requested convergence on MAX density matrix=1.00D-06.
 Requested convergence on             energy=1.00D-06.
 No special actions if energy rises.
 Fock matrices will be formed incrementally for  20 cycles.

 Cycle   1  Pass 1  IDiag  1:
 FoFJK:  IHMeth= 1 ICntrl=       0 DoSepK=F KAlg= 0 I1Cent=           0 FoldK=F
 IRaf= 790000000 NMat=       1 IRICut=       1 DoRegI=T DoRafI=F ISym2E= 0 IDoP0=0 IntGTp=1.
 FoFCou: FMM=F IPFlag=           0 FMFlag=      100000 FMFlg1=           0
         NFxFlg=           0 DoJE=F BraDBF=F KetDBF=F FulRan=T
         wScrn=  0.000000 ICntrl=         0 IOpCl=  0 I1Cent=           0 NGrid=           0
         NMat0=    1 NMatS0=      1 NMatT0=    0 NMatD0=    1 NMtDS0=    0 NMtDT0=    0
 Symmetry not used in FoFCou.
 E= -803.232427986260    
 DIIS: error= 4.11D-04 at cycle   1 NSaved=   1.
 NSaved= 1 IEnMin= 1 EnMin= -803.232427986260     IErMin= 1 ErrMin= 4.11D-04
 ErrMax= 4.11D-04  0.00D+00 EMaxC= 1.00D-01 BMatC= 3.11D-04 BMatP= 3.11D-04
 IDIUse=3 WtCom= 9.96D-01 WtEn= 4.11D-03
 Coeff-Com:  0.100D+01
 Coeff-En:   0.100D+01
 Coeff:      0.100D+01
 Gap=     0.078 Goal=   None    Shift=    0.000
 RMSDP=1.48D-04 MaxDP=3.94D-03              OVMax= 5.52D-03

 Cycle   2  Pass 1  IDiag  1:
 RMSU=  1.48D-04    CP:  1.00D+00
 E= -803.232730101062     Delta-E=       -0.000302114802 Rises=F Damp=F
 DIIS: error= 5.85D-04 at cycle   2 NSaved=   2.
 NSaved= 2 IEnMin= 2 EnMin= -803.232730101062     IErMin= 1 ErrMin= 4.11D-04
 ErrMax= 5.85D-04  0.00D+00 EMaxC= 1.00D-01 BMatC= 1.73D-04 BMatP= 3.11D-04
 IDIUse=3 WtCom= 9.94D-01 WtEn= 5.85D-03
 Coeff-Com:  0.396D+00 0.604D+00
 Coeff-En:   0.000D+00 0.100D+01
 Coeff:      0.394D+00 0.606D+00
 Gap=     0.077 Goal=   None    Shift=    0.000
 RMSDP=7.90D-05 MaxDP=3.84D-03 DE=-3.02D-04 OVMax= 7.06D-03

 Cycle   3  Pass 1  IDiag  1:
 RMSU=  7.43D-05    CP:  1.00D+00  8.21D-01
 E= -803.232779728059     Delta-E=       -0.000049626997 Rises=F Damp=F
 DIIS: error= 6.25D-04 at cycle   3 NSaved=   3.
 NSaved= 3 IEnMin= 3 EnMin= -803.232779728059     IErMin= 1 ErrMin= 4.11D-04
 ErrMax= 6.25D-04  0.00D+00 EMaxC= 1.00D-01 BMatC= 1.10D-04 BMatP= 1.73D-04
 IDIUse=3 WtCom= 9.94D-01 WtEn= 6.25D-03
 Coeff-Com:  0.411D-02 0.442D+00 0.554D+00
 Coeff-En:   0.000D+00 0.417D+00 0.583D+00
 Coeff:      0.409D-02 0.442D+00 0.554D+00
 Gap=     0.078 Goal=   None    Shift=    0.000
 RMSDP=4.45D-05 MaxDP=2.36D-03 DE=-4.96D-05 OVMax= 4.61D-03

 Cycle   4  Pass 1  IDiag  1:
 RMSU=  1.62D-05    CP:  1.00D+00  9.46D-01  5.03D-01
 E= -803.232867143748     Delta-E=       -0.000087415689 Rises=F Damp=F
 DIIS: error= 1.23D-04 at cycle   4 NSaved=   4.
 NSaved= 4 IEnMin= 4 EnMin= -803.232867143748     IErMin= 4 ErrMin= 1.23D-04
 ErrMax= 1.23D-04  0.00D+00 EMaxC= 1.00D-01 BMatC= 5.32D-06 BMatP= 1.10D-04
 IDIUse=3 WtCom= 9.99D-01 WtEn= 1.23D-03
 Coeff-Com: -0.118D-01 0.234D+00 0.333D+00 0.445D+00
 Coeff-En:   0.000D+00 0.000D+00 0.000D+00 0.100D+01
 Coeff:     -0.118D-01 0.233D+00 0.333D+00 0.445D+00
 Gap=     0.078 Goal=   None    Shift=    0.000
 RMSDP=1.05D-05 MaxDP=4.65D-04 DE=-8.74D-05 OVMax= 1.13D-03

 Cycle   5  Pass 1  IDiag  1:
 RMSU=  5.97D-06    CP:  1.00D+00  9.38D-01  5.48D-01  5.17D-01
 E= -803.232871859573     Delta-E=       -0.000004715825 Rises=F Damp=F
 DIIS: error= 2.00D-05 at cycle   5 NSaved=   5.
 NSaved= 5 IEnMin= 5 EnMin= -803.232871859573     IErMin= 5 ErrMin= 2.00D-05
 ErrMax= 2.00D-05  0.00D+00 EMaxC= 1.00D-01 BMatC= 3.81D-07 BMatP= 5.32D-06
 IDIUse=1 WtCom= 1.00D+00 WtEn= 0.00D+00
 Coeff-Com: -0.731D-02 0.616D-01 0.107D+00 0.241D+00 0.597D+00
 Coeff:     -0.731D-02 0.616D-01 0.107D+00 0.241D+00 0.597D+00
 Gap=     0.078 Goal=   None    Shift=    0.000
 RMSDP=2.66D-06 MaxDP=9.97D-05 DE=-4.72D-06 OVMax= 3.12D-04

 Cycle   6  Pass 1  IDiag  1:
 RMSU=  1.82D-06    CP:  1.00D+00  9.38D-01  5.49D-01  5.78D-01  7.20D-01
 E= -803.232872179195     Delta-E=       -0.000000319622 Rises=F Damp=F
 DIIS: error= 6.78D-06 at cycle   6 NSaved=   6.
 NSaved= 6 IEnMin= 6 EnMin= -803.232872179195     IErMin= 6 ErrMin= 6.78D-06
 ErrMax= 6.78D-06  0.00D+00 EMaxC= 1.00D-01 BMatC= 4.25D-08 BMatP= 3.81D-07
 IDIUse=1 WtCom= 1.00D+00 WtEn= 0.00D+00
 Coeff-Com: -0.321D-02 0.179D-01 0.388D-01 0.107D+00 0.345D+00 0.494D+00
 Coeff:     -0.321D-02 0.179D-01 0.388D-01 0.107D+00 0.345D+00 0.494D+00
 Gap=     0.078 Goal=   None    Shift=    0.000
 RMSDP=9.34D-07 MaxDP=2.88D-05 DE=-3.20D-07 OVMax= 9.14D-05

 Cycle   7  Pass 1  IDiag  1:
 RMSU=  6.52D-07    CP:  1.00D+00  9.37D-01  5.53D-01  5.70D-01  7.72D-01
                    CP:  7.26D-01
 E= -803.232872219989     Delta-E=       -0.000000040794 Rises=F Damp=F
 DIIS: error= 1.90D-06 at cycle   7 NSaved=   7.
 NSaved= 7 IEnMin= 7 EnMin= -803.232872219989     IErMin= 7 ErrMin= 1.90D-06
 ErrMax= 1.90D-06  0.00D+00 EMaxC= 1.00D-01 BMatC= 2.67D-09 BMatP= 4.25D-08
 IDIUse=1 WtCom= 1.00D+00 WtEn= 0.00D+00
 Coeff-Com: -0.407D-03-0.105D-02 0.234D-02 0.147D-01 0.712D-01 0.231D+00
 Coeff-Com:  0.682D+00
 Coeff:     -0.407D-03-0.105D-02 0.234D-02 0.147D-01 0.712D-01 0.231D+00
 Coeff:      0.682D+00
 Gap=     0.078 Goal=   None    Shift=    0.000
 RMSDP=3.39D-07 MaxDP=1.08D-05 DE=-4.08D-08 OVMax= 4.55D-05

 Cycle   8  Pass 1  IDiag  1:
 RMSU=  2.65D-07    CP:  1.00D+00  9.37D-01  5.53D-01  5.77D-01  7.72D-01
                    CP:  7.92D-01  7.95D-01
 E= -803.232872222526     Delta-E=       -0.000000002536 Rises=F Damp=F
 DIIS: error= 1.45D-06 at cycle   8 NSaved=   8.
 NSaved= 8 IEnMin= 8 EnMin= -803.232872222526     IErMin= 8 ErrMin= 1.45D-06
 ErrMax= 1.45D-06  0.00D+00 EMaxC= 1.00D-01 BMatC= 8.40D-10 BMatP= 2.67D-09
 IDIUse=1 WtCom= 1.00D+00 WtEn= 0.00D+00
 Coeff-Com: -0.180D-04-0.213D-02-0.151D-02 0.147D-02 0.207D-01 0.109D+00
 Coeff-Com:  0.448D+00 0.425D+00
 Coeff:     -0.180D-04-0.213D-02-0.151D-02 0.147D-02 0.207D-01 0.109D+00
 Coeff:      0.448D+00 0.425D+00
 Gap=     0.078 Goal=   None    Shift=    0.000
 RMSDP=1.33D-07 MaxDP=5.67D-06 DE=-2.54D-09 OVMax= 1.25D-05

 Cycle   9  Pass 1  IDiag  1:
 RMSU=  9.68D-08    CP:  1.00D+00  9.38D-01  5.53D-01  5.77D-01  7.75D-01
                    CP:  7.90D-01  8.68D-01  7.21D-01
 E= -803.232872223359     Delta-E=       -0.000000000834 Rises=F Damp=F
 DIIS: error= 4.99D-07 at cycle   9 NSaved=   9.
 NSaved= 9 IEnMin= 9 EnMin= -803.232872223359     IErMin= 9 ErrMin= 4.99D-07
 ErrMax= 4.99D-07  0.00D+00 EMaxC= 1.00D-01 BMatC= 8.13D-11 BMatP= 8.40D-10
 IDIUse=1 WtCom= 1.00D+00 WtEn= 0.00D+00
 Coeff-Com:  0.794D-04-0.111D-02-0.151D-02-0.280D-02-0.379D-02 0.123D-01
 Coeff-Com:  0.138D+00 0.242D+00 0.617D+00
 Coeff:      0.794D-04-0.111D-02-0.151D-02-0.280D-02-0.379D-02 0.123D-01
 Coeff:      0.138D+00 0.242D+00 0.617D+00
 Gap=     0.078 Goal=   None    Shift=    0.000
 RMSDP=5.79D-08 MaxDP=2.87D-06 DE=-8.34D-10 OVMax= 9.51D-06

 Cycle  10  Pass 1  IDiag  1:
 RMSU=  4.07D-08    CP:  1.00D+00  9.38D-01  5.53D-01  5.77D-01  7.76D-01
                    CP:  8.00D-01  8.89D-01  8.23D-01  7.95D-01
 E= -803.232872223442     Delta-E=       -0.000000000083 Rises=F Damp=F
 DIIS: error= 1.96D-07 at cycle  10 NSaved=  10.
 NSaved=10 IEnMin=10 EnMin= -803.232872223442     IErMin=10 ErrMin= 1.96D-07
 ErrMax= 1.96D-07  0.00D+00 EMaxC= 1.00D-01 BMatC= 2.36D-11 BMatP= 8.13D-11
 IDIUse=1 WtCom= 1.00D+00 WtEn= 0.00D+00
 Coeff-Com:  0.496D-04-0.396D-03-0.678D-03-0.185D-02-0.440D-02-0.740D-02
 Coeff-Com:  0.266D-01 0.808D-01 0.407D+00 0.500D+00
 Coeff:      0.496D-04-0.396D-03-0.678D-03-0.185D-02-0.440D-02-0.740D-02
 Coeff:      0.266D-01 0.808D-01 0.407D+00 0.500D+00
 Gap=     0.078 Goal=   None    Shift=    0.000
 RMSDP=2.27D-08 MaxDP=6.38D-07 DE=-8.32D-11 OVMax= 1.89D-06

 Cycle  11  Pass 1  IDiag  1:
 RMSU=  1.65D-08    CP:  1.00D+00  9.38D-01  5.53D-01  5.77D-01  7.77D-01
                    CP:  8.01D-01  9.00D-01  8.32D-01  8.83D-01  7.82D-01
 E= -803.232872223485     Delta-E=       -0.000000000042 Rises=F Damp=F
 DIIS: error= 9.22D-08 at cycle  11 NSaved=  11.
 NSaved=11 IEnMin=11 EnMin= -803.232872223485     IErMin=11 ErrMin= 9.22D-08
 ErrMax= 9.22D-08  0.00D+00 EMaxC= 1.00D-01 BMatC= 2.37D-12 BMatP= 2.36D-11
 IDIUse=1 WtCom= 1.00D+00 WtEn= 0.00D+00
 Coeff-Com:  0.165D-04-0.569D-04-0.148D-03-0.725D-03-0.209D-02-0.689D-02
 Coeff-Com: -0.737D-02-0.129D-02 0.141D+00 0.272D+00 0.606D+00
 Coeff:      0.165D-04-0.569D-04-0.148D-03-0.725D-03-0.209D-02-0.689D-02
 Coeff:     -0.737D-02-0.129D-02 0.141D+00 0.272D+00 0.606D+00
 Gap=     0.078 Goal=   None    Shift=    0.000
 RMSDP=1.09D-08 MaxDP=2.42D-07 DE=-4.21D-11 OVMax= 1.59D-06

 Cycle  12  Pass 1  IDiag  1:
 RMSU=  7.00D-09    CP:  1.00D+00  9.38D-01  5.53D-01  5.77D-01  7.77D-01
                    CP:  8.02D-01  9.05D-01  8.47D-01  9.14D-01  8.92D-01
                    CP:  7.98D-01
 E= -803.232872223479     Delta-E=        0.000000000005 Rises=F Damp=F
 DIIS: error= 3.17D-08 at cycle  12 NSaved=  12.
 NSaved=12 IEnMin=11 EnMin= -803.232872223485     IErMin=12 ErrMin= 3.17D-08
 ErrMax= 3.17D-08  0.00D+00 EMaxC= 1.00D-01 BMatC= 5.50D-13 BMatP= 2.37D-12
 IDIUse=1 WtCom= 1.00D+00 WtEn= 0.00D+00
 Coeff-Com:  0.133D-05 0.273D-04 0.341D-04-0.117D-03-0.430D-03-0.272D-02
 Coeff-Com: -0.788D-02-0.151D-01 0.270D-01 0.652D-01 0.361D+00 0.573D+00
 Coeff:      0.133D-05 0.273D-04 0.341D-04-0.117D-03-0.430D-03-0.272D-02
 Coeff:     -0.788D-02-0.151D-01 0.270D-01 0.652D-01 0.361D+00 0.573D+00
 Gap=     0.078 Goal=   None    Shift=    0.000
 RMSDP=4.39D-09 MaxDP=1.05D-07 DE= 5.46D-12 OVMax= 7.18D-07

 SCF Done:  E(RB3LYP) =  -803.232872223     A.U. after   12 cycles
            NFock= 12  Conv=0.44D-08     -V/T= 2.0091
 KE= 7.959596946499D+02 PE=-4.277446133455D+03 EE= 1.473842315191D+03
 Leave Link  502 at Sat Apr  3 17:55:05 2021, MaxMem=   805306368 cpu:             382.1 elap:              56.2
 (Enter /public/home/lyb//g16/l801.exe)
 DoSCS=F DFT=T ScalE2(SS,OS)=  1.000000  1.000000
 ExpMin= 1.61D-01 ExpMax= 5.48D+03 ExpMxC= 8.25D+02 IAcc=3 IRadAn=         5 AccDes= 0.00D+00
 HarFok:  IExCor=  205 AccDes= 0.00D+00 IRadAn=         5 IDoV=-2 UseB2=F ITyADJ=14
 ICtDFT= 12500011 ScaDFX=  1.000000  1.000000  1.000000  1.000000
 Largest valence mixing into a core orbital is  5.84D-05
 Largest core mixing into a valence orbital is  1.22D-05
 Range of M.O.s used for correlation:    19   290
 NBasis=   290 NAE=    62 NBE=    62 NFC=    18 NFV=     0
 NROrb=    272 NOA=    44 NOB=    44 NVA=   228 NVB=   228

 **** Warning!!: The smallest alpha delta epsilon is  0.77713121D-01

 Leave Link  801 at Sat Apr  3 17:55:05 2021, MaxMem=   805306368 cpu:               1.2 elap:               0.2
 (Enter /public/home/lyb//g16/l914.exe)
 RHF ground state
 Two-electron integrals replicated using symmetry.
 MDV=   805306368 DFT=T DoStab=F Mixed=T DoRPA=T DoScal=F NonHer=T
 Making orbital integer symmetry assigments:
 Orbital symmetries:
       Occupied  (A) (A) (A) (A) (A) (A) (A) (A) (A) (A) (A) (A)
                 (A) (A) (A) (A) (A) (A) (A) (A) (A) (A) (A) (A)
                 (A) (A) (A) (A) (A) (A) (A) (A) (A) (A) (A) (A)
                 (A) (A) (A) (A) (A) (A) (A) (A) (A) (A) (A) (A)
                 (A) (A) (A) (A) (A) (A) (A) (A) (A) (A) (A) (A)
                 (A) (A)
       Virtual   (A) (A) (A) (A) (A) (A) (A) (A) (A) (A) (A) (A)
                 (A) (A) (A) (A) (A) (A) (A) (A) (A) (A) (A) (A)
                 (A) (A) (A) (A) (A) (A) (A) (A) (A) (A) (A) (A)
                 (A) (A) (A) (A) (A) (A) (A) (A) (A) (A) (A) (A)
                 (A) (A) (A) (A) (A) (A) (A) (A) (A) (A) (A) (A)
                 (A) (A) (A) (A) (A) (A) (A) (A) (A) (A) (A) (A)
                 (A) (A) (A) (A) (A) (A) (A) (A) (A) (A) (A) (A)
                 (A) (A) (A) (A) (A) (A) (A) (A) (A) (A) (A) (A)
                 (A) (A) (A) (A) (A) (A) (A) (A) (A) (A) (A) (A)
                 (A) (A) (A) (A) (A) (A) (A) (A) (A) (A) (A) (A)
                 (A) (A) (A) (A) (A) (A) (A) (A) (A) (A) (A) (A)
                 (A) (A) (A) (A) (A) (A) (A) (A) (A) (A) (A) (A)
                 (A) (A) (A) (A) (A) (A) (A) (A) (A) (A) (A) (A)
                 (A) (A) (A) (A) (A) (A) (A) (A) (A) (A) (A) (A)
                 (A) (A) (A) (A) (A) (A) (A) (A) (A) (A) (A) (A)
                 (A) (A) (A) (A) (A) (A) (A) (A) (A) (A) (A) (A)
                 (A) (A) (A) (A) (A) (A) (A) (A) (A) (A) (A) (A)
                 (A) (A) (A) (A) (A) (A) (A) (A) (A) (A) (A) (A)
                 (A) (A) (A) (A) (A) (A) (A) (A) (A) (A) (A) (A)
    24 initial guesses have been made.
 Convergence on wavefunction:    0.000001000000000
 Davidson Disk Diagonalization:  ConvIn= 1.00D-06 SkipCon=T Conv= 1.00D-06.
 Max sub-space:  2000 roots to seek:    24 dimension of matrix:        20064
 Iteration     1 Dimension    24 NMult     0 NNew     24
 CISAX will form    24 AO SS matrices at one time.
 NMat=    24 NSing=    24 JSym2X= 0.
 FoFJK:  IHMeth= 1 ICntrl=       0 DoSepK=F KAlg= 0 I1Cent=           0 FoldK=F
 IRaf= 790000000 NMat=      48 IRICut=      60 DoRegI=T DoRafI=T ISym2E= 0 IDoP0=0 IntGTp=1.
 FoFCou: FMM=F IPFlag=           0 FMFlag=      100000 FMFlg1=           0
         NFxFlg=           0 DoJE=F BraDBF=F KetDBF=F FulRan=T
         wScrn=  0.000000 ICntrl=         0 IOpCl=  0 I1Cent=           0 NGrid=           0
         NMat0=   48 NMatS0=     24 NMatT0=    0 NMatD0=   48 NMtDS0=    0 NMtDT0=    0
 Symmetry not used in FoFCou.
 Raff kept on since  76.04% of shell-pairs survive, threshold=   0.20 IRatSp=76.
 New state      2 was old state      3
 New state      3 was old state      2
 New state      5 was old state      7
 New state      6 was old state      5
 Excitation Energies [eV] at current iteration:
 Root      1 :     1.545723541859539
 Root      2 :     3.023581844171560
 Root      3 :     3.369336114723833
 Root      4 :     3.745498359502867
 Root      5 :     3.891561348269605
 Root      6 :     4.023083237185348
 Root      7 :     4.267976068686421
 Root      8 :     4.638919322129580
 Root      9 :     4.858419044717661
 Root     10 :     5.267842789343709
 Root     11 :     5.371141536819858
 Root     12 :     5.518705381834573
 Root     13 :     5.644785900662648
 Root     14 :     5.761354974652727
 Root     15 :     5.914926321348522
 Root     16 :     6.033776970073199
 Root     17 :     6.071462407679165
 Root     18 :     6.193936629422775
 Root     19 :     6.385693352895312
 Root     20 :     6.480945168469458
 Root     21 :     6.888197214223119
 Root     22 :     7.243513243826647
 Root     23 :     7.543463876092750
 Root     24 :     7.958557013042530
 Iteration     2 Dimension    36 NMult    24 NNew     12
 CISAX will form    12 AO SS matrices at one time.
 NMat=    12 NSing=    12 JSym2X= 0.
 Root      1 not converged, maximum delta is    0.032312780242135
 Root      2 not converged, maximum delta is    0.025738486877457
 Root      3 not converged, maximum delta is    0.113749573951121
 Root      4 not converged, maximum delta is    0.036752540493372
 New state      5 was old state      6
 Root      5 not converged, maximum delta is    0.391344067061442
 New state      6 was old state      5
 Root      6 not converged, maximum delta is    0.332093253480603
 Excitation Energies [eV] at current iteration:
 Root      1 :     1.397538673915137   Change is   -0.148184867944402
 Root      2 :     2.993652427197973   Change is   -0.029929416973587
 Root      3 :     3.194195987955562   Change is   -0.175140126768271
 Root      4 :     3.737182666035640   Change is   -0.008315693467227
 Root      5 :     3.819828511528826   Change is   -0.203254725656523
 Root      6 :     3.889615370171112   Change is   -0.001945978098493
 Iteration     3 Dimension    48 NMult    36 NNew     12
 CISAX will form    12 AO SS matrices at one time.
 NMat=    12 NSing=    12 JSym2X= 0.
 Root      1 not converged, maximum delta is    0.010320749745429
 Root      2 not converged, maximum delta is    0.007718928194264
 Root      3 not converged, maximum delta is    0.021107114365366
 Root      4 not converged, maximum delta is    0.010331860111801
 Root      5 not converged, maximum delta is    0.046667286830984
 Root      6 not converged, maximum delta is    0.037727829063267
 Excitation Energies [eV] at current iteration:
 Root      1 :     1.389698065920575   Change is   -0.007840607994562
 Root      2 :     2.991585897742186   Change is   -0.002066529455788
 Root      3 :     3.177277823239912   Change is   -0.016918164715650
 Root      4 :     3.736702948436452   Change is   -0.000479717599188
 Root      5 :     3.802417553891205   Change is   -0.017410957637621
 Root      6 :     3.886326144394670   Change is   -0.003289225776441
 Iteration     4 Dimension    60 NMult    48 NNew     12
 CISAX will form    12 AO SS matrices at one time.
 NMat=    12 NSing=    12 JSym2X= 0.
 Root      1 not converged, maximum delta is    0.001074822159383
 Root      2 not converged, maximum delta is    0.002117759130321
 Root      3 not converged, maximum delta is    0.001532041114840
 Root      4 not converged, maximum delta is    0.002126920596312
 Root      5 not converged, maximum delta is    0.022350243044899
 Root      6 not converged, maximum delta is    0.014447801489796
 Excitation Energies [eV] at current iteration:
 Root      1 :     1.389180779065617   Change is   -0.000517286854959
 Root      2 :     2.991301517687063   Change is   -0.000284380055122
 Root      3 :     3.175950614592246   Change is   -0.001327208647666
 Root      4 :     3.736651259537041   Change is   -0.000051688899410
 Root      5 :     3.800287336527801   Change is   -0.002130217363403
 Root      6 :     3.885956601052776   Change is   -0.000369543341895
 Iteration     5 Dimension    72 NMult    60 NNew     12
 CISAX will form    12 AO SS matrices at one time.
 NMat=    12 NSing=    12 JSym2X= 0.
 Root      1 not converged, maximum delta is    0.000402368725808
 Root      2 not converged, maximum delta is    0.000325039680606
 Root      3 not converged, maximum delta is    0.000501010086980
 Root      4 not converged, maximum delta is    0.000171187074802
 Root      5 not converged, maximum delta is    0.004581697076767
 Root      6 not converged, maximum delta is    0.004539662216586
 Excitation Energies [eV] at current iteration:
 Root      1 :     1.389130672868303   Change is   -0.000050106197313
 Root      2 :     2.991289378497455   Change is   -0.000012139189608
 Root      3 :     3.175863280813144   Change is   -0.000087333779102
 Root      4 :     3.736647640229649   Change is   -0.000003619307392
 Root      5 :     3.800089338059999   Change is   -0.000197998467802
 Root      6 :     3.885912598975578   Change is   -0.000044002077197
 Iteration     6 Dimension    84 NMult    72 NNew     12
 CISAX will form    12 AO SS matrices at one time.
 NMat=    12 NSing=    12 JSym2X= 0.
 Root      1 not converged, maximum delta is    0.000102211743360
 Root      2 not converged, maximum delta is    0.000056773196497
 Root      3 not converged, maximum delta is    0.000129598910982
 Root      4 not converged, maximum delta is    0.000020291667551
 Root      5 not converged, maximum delta is    0.000837697311961
 Root      6 not converged, maximum delta is    0.000979755661738
 Excitation Energies [eV] at current iteration:
 Root      1 :     1.389127240231967   Change is   -0.000003432636336
 Root      2 :     2.991288869542589   Change is   -0.000000508954866
 Root      3 :     3.175855708457051   Change is   -0.000007572356092
 Root      4 :     3.736647456478719   Change is   -0.000000183750930
 Root      5 :     3.800070802798758   Change is   -0.000018535261242
 Root      6 :     3.885908050182936   Change is   -0.000004548792642
 Iteration     7 Dimension    96 NMult    84 NNew     12
 CISAX will form    12 AO SS matrices at one time.
 NMat=    12 NSing=    12 JSym2X= 0.
 Root      1 not converged, maximum delta is    0.000013315470434
 Root      2 not converged, maximum delta is    0.000015670267674
 Root      3 not converged, maximum delta is    0.000019582353565
 Root      4 not converged, maximum delta is    0.000002895343231
 Root      5 not converged, maximum delta is    0.000051390181064
 Root      6 not converged, maximum delta is    0.000072036831305
 Excitation Energies [eV] at current iteration:
 Root      1 :     1.389127125071380   Change is   -0.000000115160587
 Root      2 :     2.991288840843174   Change is   -0.000000028699415
 Root      3 :     3.175855473007851   Change is   -0.000000235449200
 Root      4 :     3.736647447270367   Change is   -0.000000009208352
 Root      5 :     3.800069988316728   Change is   -0.000000814482029
 Root      6 :     3.885907830394518   Change is   -0.000000219788418
 Iteration     8 Dimension   108 NMult    96 NNew     12
 CISAX will form    12 AO SS matrices at one time.
 NMat=    12 NSing=    12 JSym2X= 0.
 Root      1 not converged, maximum delta is    0.000001245616574
 Root      2 not converged, maximum delta is    0.000001314703354
 Root      3 not converged, maximum delta is    0.000003857797843
 Root      4 not converged, maximum delta is    0.000001316364955
 Root      5 not converged, maximum delta is    0.000006380653544
 Root      6 not converged, maximum delta is    0.000002922289515
 Excitation Energies [eV] at current iteration:
 Root      1 :     1.389127121644665   Change is   -0.000000003426716
 Root      2 :     2.991288840028956   Change is   -0.000000000814218
 Root      3 :     3.175855465818223   Change is   -0.000000007189628
 Root      4 :     3.736647446807369   Change is   -0.000000000462997
 Root      5 :     3.800069948778042   Change is   -0.000000039538686
 Root      6 :     3.885907819596223   Change is   -0.000000010798296
 Iteration     9 Dimension   120 NMult   108 NNew     12
 CISAX will form    12 AO SS matrices at one time.
 NMat=    12 NSing=    12 JSym2X= 0.
 Root      1 has converged.
 Root      2 has converged.
 Root      3 has converged.
 Root      4 has converged.
 Root      5 not converged, maximum delta is    0.000001670496565
 Root      6 has converged.
 Excitation Energies [eV] at current iteration:
 Root      1 :     1.389127121573945   Change is   -0.000000000070719
 Root      2 :     2.991288840002600   Change is   -0.000000000026355
 Root      3 :     3.175855465593669   Change is   -0.000000000224554
 Root      4 :     3.736647446787789   Change is   -0.000000000019580
 Root      5 :     3.800069947144891   Change is   -0.000000001633152
 Root      6 :     3.885907819154267   Change is   -0.000000000441955
 Iteration    10 Dimension   122 NMult   120 NNew      2
 CISAX will form     2 AO SS matrices at one time.
 NMat=     2 NSing=     2 JSym2X= 0.
 Root      1 has converged.
 Root      2 has converged.
 Root      3 has converged.
 Root      4 has converged.
 Root      5 has converged.
 Root      6 has converged.
 Excitation Energies [eV] at current iteration:
 Root      1 :     1.389127121573886   Change is   -0.000000000000059
 Root      2 :     2.991288840002545   Change is   -0.000000000000055
 Root      3 :     3.175855465593411   Change is   -0.000000000000259
 Root      4 :     3.736647446787261   Change is   -0.000000000000528
 Root      5 :     3.800069947087866   Change is   -0.000000000057025
 Root      6 :     3.885907819141194   Change is   -0.000000000013074
 Convergence achieved on expansion vectors.
 ***********************************************************************
 Excited states from <AA,BB:AA,BB> singles matrix:
 ***********************************************************************
 
 1PDM for each excited state written to RWF  633
 Ground to excited state transition densities written to RWF  633
 Ground to excited state transition electric dipole moments (Au):
       state          X           Y           Z        Dip. S.      Osc.
         1         0.0714      0.3339     -0.0614      0.1204      0.0041
         2         0.0083     -0.0003     -0.0096      0.0002      0.0000
         3         1.3489      0.2067     -0.0092      1.8624      0.1449
         4         0.0264      0.0175      0.0447      0.0030      0.0003
         5        -0.0879      0.4104     -0.0433      0.1780      0.0166
         6         0.0943     -0.0416      0.0900      0.0187      0.0018
 Ground to excited state transition velocity dipole moments (Au):
       state          X           Y           Z        Dip. S.      Osc.
         1        -0.0092     -0.0268      0.0030      0.0008      0.0106
         2        -0.0020      0.0007      0.0017      0.0000      0.0000
         3        -0.1571     -0.0304      0.0014      0.0256      0.1464
         4        -0.0043     -0.0018     -0.0126      0.0002      0.0009
         5         0.0186     -0.0559      0.0107      0.0036      0.0171
         6        -0.0143      0.0041     -0.0174      0.0005      0.0024
 Ground to excited state transition magnetic dipole moments (Au):
       state          X           Y           Z
         1         0.0174      0.0233      0.2630
         2        -0.0049      0.1218     -0.0634
         3         0.0060     -0.0832     -0.9930
         4        -0.0199     -0.1550      0.1372
         5         0.0098      0.0125      0.2000
         6         0.0075     -0.1564      0.0691
 Ground to excited state transition velocity quadrupole moments (Au):
       state          XX          YY          ZZ          XY          XZ          YZ
         1        -0.0785      0.0187     -0.0032     -0.0951      0.0080     -0.0015
         2         0.0223     -0.0074     -0.0049     -0.0023     -0.0001      0.0175
         3        -0.2169     -0.1343      0.0206     -0.2066     -0.0024      0.0516
         4         0.0611     -0.0260     -0.0014      0.0199      0.0557      0.0119
         5        -0.4831      0.2011     -0.0027      0.1035     -0.0053     -0.0517
         6         0.2033     -0.0669      0.0021      0.0361      0.0729      0.0254
 <0|del|b> * <b|rxdel|0> + <0|del|b> * <b|delr+rdel|0>
 Rotatory Strengths (R) in cgs (10**-40 erg-esu-cm/Gauss)
       state          XX          YY          ZZ    R(velocity)    E-M Angle
         1         0.5992      6.3240     -7.0211     -0.0326       90.00
         2        -0.1004     -0.4159      0.4038     -0.0375       90.00
         3         2.5394    -30.6405     29.6007      0.4999       89.91
         4        -4.1263     -3.7313      0.8198     -2.3460      119.16
         5         5.6865      0.6386      1.8771      2.7341       82.25
         6        -6.8712     -2.5802     -0.2184     -3.2233      119.92
 1/2[<0|r|b>*<b|rxdel|0> + (<0|rxdel|b>*<b|r|0>)*]
 Rotatory Strengths (R) in cgs (10**-40 erg-esu-cm/Gauss)
       state          XX          YY          ZZ     R(length)
         1        -0.8771     -5.5056     11.4244      1.6805
         2         0.0290      0.0252     -0.4310     -0.1256
         3        -5.7318     12.1654     -6.4419     -0.0028
         4         0.3723      1.9175     -4.3347     -0.6816
         5         0.6089     -3.6343      6.1212      1.0319
         6        -0.4985     -4.6073     -4.3977     -3.1678
  1/2[<0|del|b>*<b|r|0> + (<0|r|b>*<b|del|0>)*] (Au)
       state          X           Y           Z        Dip. S.   Osc.(frdel)
         1        -0.0007     -0.0089     -0.0002      0.0098      0.0065
         2        -0.0000     -0.0000     -0.0000      0.0000      0.0000
         3        -0.2120     -0.0063     -0.0000      0.2183      0.1455
         4        -0.0001     -0.0000     -0.0006      0.0007      0.0005
         5        -0.0016     -0.0229     -0.0005      0.0250      0.0167
         6        -0.0013     -0.0002     -0.0016      0.0031      0.0021

 Excitation energies and oscillator strengths:
 
 Excited State   1:      Singlet-A      1.3891 eV  892.53 nm  f=0.0041  <S**2>=0.000
      62 -> 63         0.70699
 This state for optimization and/or second-order correction.
 Total Energy, E(TD-HF/TD-DFT) =  -803.181822741    
 Copying the excited state density for this state as the 1-particle RhoCI density.
 
 Excited State   2:      Singlet-A      2.9913 eV  414.48 nm  f=0.0000  <S**2>=0.000
      61 -> 63         0.70187
 
 Excited State   3:      Singlet-A      3.1759 eV  390.40 nm  f=0.1449  <S**2>=0.000
      59 -> 63        -0.12788
      62 -> 64         0.69152
 
 Excited State   4:      Singlet-A      3.7366 eV  331.81 nm  f=0.0003  <S**2>=0.000
      62 -> 65         0.69587
 
 Excited State   5:      Singlet-A      3.8001 eV  326.27 nm  f=0.0166  <S**2>=0.000
      58 -> 63         0.10528
      59 -> 63        -0.18057
      60 -> 63         0.65048
 
 Excited State   6:      Singlet-A      3.8859 eV  319.06 nm  f=0.0018  <S**2>=0.000
      58 -> 63         0.68475
      60 -> 63        -0.12876
 SavETr:  write IOETrn=   770 NScale= 10 NData=  16 NLR=1 NState=    6 LETran=     118.
 The selected state is a singlet.
 CISGrd: IGrad=2 NXY=2 DFT=T
 CISAX will form     1 AO SS matrices at one time.
 NMat=     1 NSing=     1 JSym2X= 0.
 Leave Link  914 at Sat Apr  3 18:00:57 2021, MaxMem=   805306368 cpu:            2606.3 elap:             351.8
 (Enter /public/home/lyb//g16/l1002.exe)
 Minotr:  Closed shell wavefunction.
          Computing CIS/TDA/TD derivatives.
          Using Z-Vector for PSCF gradient.
          Skipping F1 and S1 gradient terms here.
          IDoAtm=1111111111111111111111111111
          Frozen-core window.
          Direct CPHF calculation.
          Differentiating once with respect to electric field.
                with respect to dipole field.
          Differentiating once with respect to nuclear coordinates.
          Requested convergence is 1.0D-10 RMS, and 1.0D-09 maximum.
          NewPWx=F KeepS1=T KeepF1=T KeepIn=T MapXYZ=F SortEE=F KeepMc=T.
 Two-electron integral symmetry used by symmetrizing perturbed Fock matrices.
          MDV=     805306368 using IRadAn=       5.
          Solving linear equations separately, MaxMat=     384.
          There are     1 degrees of freedom in the 1st order CPHF.  IDoFFX=0 NUNeed=     1.
 FoFJK:  IHMeth= 1 ICntrl=       0 DoSepK=F KAlg= 0 I1Cent=           0 FoldK=F
 IRaf= 820000000 NMat=       1 IRICut=       1 DoRegI=T DoRafI=F ISym2E=-1 IDoP0=0 IntGTp=1.
 FoFCou: FMM=F IPFlag=           0 FMFlag=      100000 FMFlg1=           0
         NFxFlg=           0 DoJE=F BraDBF=F KetDBF=F FulRan=T
         wScrn=  0.000000 ICntrl=         0 IOpCl=  0 I1Cent=           0 NGrid=           0
         NMat0=    1 NMatS0=      1 NMatT0=    0 NMatD0=    1 NMtDS0=    0 NMtDT0=    0
 Petite list used in FoFCou.
 LinEq1:  Iter=  0 NonCon=     1 RMS=2.15D-02 Max=1.13D+00 NDo=     1
 AX will form     1 AO Fock derivatives at one time.
 LinEq1:  Iter=  1 NonCon=     1 RMS=7.26D-03 Max=4.38D-01 NDo=     1
 LinEq1:  Iter=  2 NonCon=     1 RMS=7.59D-03 Max=5.81D-01 NDo=     1
 LinEq1:  Iter=  3 NonCon=     1 RMS=3.57D-03 Max=1.20D-01 NDo=     1
 LinEq1:  Iter=  4 NonCon=     1 RMS=2.59D-03 Max=1.31D-01 NDo=     1
 LinEq1:  Iter=  5 NonCon=     1 RMS=1.67D-03 Max=7.42D-02 NDo=     1
 LinEq1:  Iter=  6 NonCon=     1 RMS=1.40D-03 Max=6.98D-02 NDo=     1
 LinEq1:  Iter=  7 NonCon=     1 RMS=8.63D-04 Max=2.74D-02 NDo=     1
 LinEq1:  Iter=  8 NonCon=     1 RMS=5.82D-04 Max=2.54D-02 NDo=     1
 LinEq1:  Iter=  9 NonCon=     1 RMS=4.02D-04 Max=1.56D-02 NDo=     1
 LinEq1:  Iter= 10 NonCon=     1 RMS=1.71D-04 Max=2.56D-03 NDo=     1
 LinEq1:  Iter= 11 NonCon=     1 RMS=1.24D-04 Max=4.81D-03 NDo=     1
 LinEq1:  Iter= 12 NonCon=     1 RMS=7.40D-05 Max=2.34D-03 NDo=     1
 LinEq1:  Iter= 13 NonCon=     1 RMS=3.50D-05 Max=8.58D-04 NDo=     1
 LinEq1:  Iter= 14 NonCon=     1 RMS=2.16D-05 Max=7.54D-04 NDo=     1
 LinEq1:  Iter= 15 NonCon=     1 RMS=1.16D-05 Max=2.52D-04 NDo=     1
 LinEq1:  Iter= 16 NonCon=     1 RMS=6.70D-06 Max=1.64D-04 NDo=     1
 LinEq1:  Iter= 17 NonCon=     1 RMS=2.95D-06 Max=7.74D-05 NDo=     1
 LinEq1:  Iter= 18 NonCon=     1 RMS=1.60D-06 Max=6.43D-05 NDo=     1
 LinEq1:  Iter= 19 NonCon=     1 RMS=8.41D-07 Max=2.91D-05 NDo=     1
 LinEq1:  Iter= 20 NonCon=     1 RMS=6.03D-07 Max=2.00D-05 NDo=     1
 LinEq1:  Iter= 21 NonCon=     1 RMS=2.92D-07 Max=1.09D-05 NDo=     1
 LinEq1:  Iter= 22 NonCon=     1 RMS=2.17D-07 Max=5.76D-06 NDo=     1
 LinEq1:  Iter= 23 NonCon=     1 RMS=1.06D-07 Max=3.45D-06 NDo=     1
 LinEq1:  Iter= 24 NonCon=     1 RMS=5.90D-08 Max=1.53D-06 NDo=     1
 LinEq1:  Iter= 25 NonCon=     1 RMS=3.76D-08 Max=1.27D-06 NDo=     1
 LinEq1:  Iter= 26 NonCon=     1 RMS=1.59D-08 Max=4.61D-07 NDo=     1
 LinEq1:  Iter= 27 NonCon=     1 RMS=8.51D-09 Max=2.10D-07 NDo=     1
 LinEq1:  Iter= 28 NonCon=     1 RMS=3.73D-09 Max=1.08D-07 NDo=     1
 LinEq1:  Iter= 29 NonCon=     1 RMS=1.69D-09 Max=3.79D-08 NDo=     1
 LinEq1:  Iter= 30 NonCon=     1 RMS=7.74D-10 Max=1.61D-08 NDo=     1
 LinEq1:  Iter= 31 NonCon=     1 RMS=2.86D-10 Max=4.91D-09 NDo=     1
 LinEq1:  Iter= 32 NonCon=     1 RMS=8.09D-11 Max=2.12D-09 NDo=     1
 LinEq1:  Iter= 33 NonCon=     1 RMS=4.04D-11 Max=1.67D-09 NDo=     1
 LinEq1:  Iter= 34 NonCon=     0 RMS=1.91D-11 Max=3.29D-10 NDo=     1
 Linear equations converged to 1.000D-10 1.000D-09 after    34 iterations.
 End of Minotr F.D. properties file   721 does not exist.
 End of Minotr F.D. properties file   722 does not exist.
 End of Minotr F.D. properties file   788 does not exist.
 Leave Link 1002 at Sat Apr  3 18:04:44 2021, MaxMem=   805306368 cpu:            1394.2 elap:             226.9
 (Enter /public/home/lyb//g16/l601.exe)
 Copying SCF densities to generalized density rwf, IOpCl= 0 IROHF=0.

 **********************************************************************

            Population analysis using the SCF density.

 **********************************************************************

 Orbital symmetries:
       Occupied  (A) (A) (A) (A) (A) (A) (A) (A) (A) (A) (A) (A)
                 (A) (A) (A) (A) (A) (A) (A) (A) (A) (A) (A) (A)
                 (A) (A) (A) (A) (A) (A) (A) (A) (A) (A) (A) (A)
                 (A) (A) (A) (A) (A) (A) (A) (A) (A) (A) (A) (A)
                 (A) (A) (A) (A) (A) (A) (A) (A) (A) (A) (A) (A)
                 (A) (A)
       Virtual   (A) (A) (A) (A) (A) (A) (A) (A) (A) (A) (A) (A)
                 (A) (A) (A) (A) (A) (A) (A) (A) (A) (A) (A) (A)
                 (A) (A) (A) (A) (A) (A) (A) (A) (A) (A) (A) (A)
                 (A) (A) (A) (A) (A) (A) (A) (A) (A) (A) (A) (A)
                 (A) (A) (A) (A) (A) (A) (A) (A) (A) (A) (A) (A)
                 (A) (A) (A) (A) (A) (A) (A) (A) (A) (A) (A) (A)
                 (A) (A) (A) (A) (A) (A) (A) (A) (A) (A) (A) (A)
                 (A) (A) (A) (A) (A) (A) (A) (A) (A) (A) (A) (A)
                 (A) (A) (A) (A) (A) (A) (A) (A) (A) (A) (A) (A)
                 (A) (A) (A) (A) (A) (A) (A) (A) (A) (A) (A) (A)
                 (A) (A) (A) (A) (A) (A) (A) (A) (A) (A) (A) (A)
                 (A) (A) (A) (A) (A) (A) (A) (A) (A) (A) (A) (A)
                 (A) (A) (A) (A) (A) (A) (A) (A) (A) (A) (A) (A)
                 (A) (A) (A) (A) (A) (A) (A) (A) (A) (A) (A) (A)
                 (A) (A) (A) (A) (A) (A) (A) (A) (A) (A) (A) (A)
                 (A) (A) (A) (A) (A) (A) (A) (A) (A) (A) (A) (A)
                 (A) (A) (A) (A) (A) (A) (A) (A) (A) (A) (A) (A)
                 (A) (A) (A) (A) (A) (A) (A) (A) (A) (A) (A) (A)
                 (A) (A) (A) (A) (A) (A) (A) (A) (A) (A) (A) (A)
 The electronic state is 1-A.
 Alpha  occ. eigenvalues --  -19.25189 -19.21664 -19.10790 -10.31714 -10.31256
 Alpha  occ. eigenvalues --  -10.26566 -10.24848 -10.23956 -10.22060 -10.21340
 Alpha  occ. eigenvalues --  -10.21130 -10.20647 -10.20644 -10.20433 -10.20220
 Alpha  occ. eigenvalues --  -10.18359 -10.17891 -10.15884  -1.14421  -1.12174
 Alpha  occ. eigenvalues --   -1.04306  -0.88525  -0.84772  -0.84253  -0.77082
 Alpha  occ. eigenvalues --   -0.76585  -0.75837  -0.72029  -0.68475  -0.65124
 Alpha  occ. eigenvalues --   -0.62399  -0.61678  -0.60672  -0.57279  -0.55922
 Alpha  occ. eigenvalues --   -0.54356  -0.51999  -0.50600  -0.49268  -0.48746
 Alpha  occ. eigenvalues --   -0.47357  -0.45956  -0.44878  -0.44126  -0.43638
 Alpha  occ. eigenvalues --   -0.43109  -0.41913  -0.41023  -0.40446  -0.39518
 Alpha  occ. eigenvalues --   -0.38142  -0.36860  -0.36195  -0.35399  -0.34433
 Alpha  occ. eigenvalues --   -0.32143  -0.30468  -0.26452  -0.26278  -0.25414
 Alpha  occ. eigenvalues --   -0.23966  -0.17428
 Alpha virt. eigenvalues --   -0.09657  -0.04131  -0.02004   0.00453   0.03565
 Alpha virt. eigenvalues --    0.07226   0.07725   0.09411   0.09711   0.12545
 Alpha virt. eigenvalues --    0.12596   0.13516   0.14356   0.15488   0.16801
 Alpha virt. eigenvalues --    0.17091   0.17944   0.18892   0.20083   0.22127
 Alpha virt. eigenvalues --    0.23720   0.25036   0.27017   0.28024   0.28937
 Alpha virt. eigenvalues --    0.29422   0.30366   0.31265   0.33620   0.34533
 Alpha virt. eigenvalues --    0.38594   0.39483   0.40902   0.42245   0.44495
 Alpha virt. eigenvalues --    0.45423   0.48095   0.48939   0.50852   0.50925
 Alpha virt. eigenvalues --    0.52533   0.53375   0.54135   0.54442   0.54935
 Alpha virt. eigenvalues --    0.55495   0.56644   0.57315   0.57887   0.58449
 Alpha virt. eigenvalues --    0.58768   0.59192   0.60094   0.60968   0.61019
 Alpha virt. eigenvalues --    0.61123   0.62052   0.62502   0.63753   0.64329
 Alpha virt. eigenvalues --    0.64833   0.66435   0.66980   0.69290   0.70498
 Alpha virt. eigenvalues --    0.73576   0.74242   0.74879   0.77529   0.79139
 Alpha virt. eigenvalues --    0.79770   0.80498   0.81177   0.81626   0.82249
 Alpha virt. eigenvalues --    0.84303   0.85562   0.87234   0.88662   0.88997
 Alpha virt. eigenvalues --    0.90118   0.91872   0.93154   0.93610   0.94080
 Alpha virt. eigenvalues --    0.95076   0.95451   0.97422   1.00135   1.00700
 Alpha virt. eigenvalues --    1.01666   1.02954   1.03898   1.04851   1.05437
 Alpha virt. eigenvalues --    1.08147   1.08436   1.10489   1.12006   1.12530
 Alpha virt. eigenvalues --    1.13696   1.15789   1.17003   1.17743   1.19233
 Alpha virt. eigenvalues --    1.22675   1.25265   1.25985   1.27891   1.29432
 Alpha virt. eigenvalues --    1.29990   1.32188   1.34150   1.36388   1.37002
 Alpha virt. eigenvalues --    1.39311   1.40290   1.42279   1.43415   1.46522
 Alpha virt. eigenvalues --    1.46894   1.47512   1.49098   1.49500   1.52027
 Alpha virt. eigenvalues --    1.52868   1.53793   1.56660   1.62750   1.66534
 Alpha virt. eigenvalues --    1.68294   1.69963   1.71883   1.72514   1.73107
 Alpha virt. eigenvalues --    1.74020   1.76601   1.79062   1.79215   1.80579
 Alpha virt. eigenvalues --    1.82455   1.83497   1.84284   1.85039   1.85849
 Alpha virt. eigenvalues --    1.89957   1.90347   1.91024   1.93166   1.95288
 Alpha virt. eigenvalues --    1.95875   1.96639   1.98476   2.00148   2.02534
 Alpha virt. eigenvalues --    2.02776   2.05393   2.07521   2.09839   2.12473
 Alpha virt. eigenvalues --    2.12909   2.13826   2.14753   2.18401   2.19858
 Alpha virt. eigenvalues --    2.20885   2.22673   2.25350   2.26943   2.28095
 Alpha virt. eigenvalues --    2.29754   2.30496   2.31493   2.33659   2.34640
 Alpha virt. eigenvalues --    2.36239   2.37826   2.41714   2.47150   2.50634
 Alpha virt. eigenvalues --    2.51526   2.52946   2.55333   2.56909   2.59038
 Alpha virt. eigenvalues --    2.60176   2.61926   2.63481   2.64515   2.68419
 Alpha virt. eigenvalues --    2.68681   2.69851   2.72711   2.73008   2.73518
 Alpha virt. eigenvalues --    2.75670   2.78432   2.79961   2.84814   2.88896
 Alpha virt. eigenvalues --    2.91115   2.94781   2.96992   3.00282   3.09146
 Alpha virt. eigenvalues --    3.13122   3.18591   3.36188   3.40438   3.46535
 Alpha virt. eigenvalues --    3.96274   4.02367   4.05712   4.07827   4.09443
 Alpha virt. eigenvalues --    4.09949   4.13539   4.14856   4.28146   4.30733
 Alpha virt. eigenvalues --    4.31496   4.32858   4.41078   4.46462   4.60041
 Alpha virt. eigenvalues --    4.68090   4.77871   4.83532
          Condensed to atoms (all electrons):
               1          2          3          4          5          6
     1  C    4.861305   0.476118  -0.013491  -0.014272  -0.008951   0.511623
     2  C    0.476118   5.111137   0.533267  -0.068594  -0.030770  -0.038396
     3  C   -0.013491   0.533267   4.741854   0.400851  -0.011911  -0.038419
     4  C   -0.014272  -0.068594   0.400851   5.405843   0.278593  -0.087237
     5  C   -0.008951  -0.030770  -0.011911   0.278593   4.472156   0.460544
     6  C    0.511623  -0.038396  -0.038419  -0.087237   0.460544   5.183076
     7  H    0.361600  -0.045379   0.004957  -0.000100   0.004033  -0.037895
     8  H   -0.035100   0.349270  -0.032629   0.003542   0.000337   0.003840
     9  C   -0.000028   0.004712  -0.034286   0.345314  -0.035231   0.006139
    10  H   -0.045520   0.005282   0.000379   0.007844  -0.033367   0.344306
    11  C   -0.000041   0.003098  -0.038587  -0.027639   0.000290   0.000015
    12  H    0.000002  -0.000320   0.001584   0.000236   0.000008  -0.000000
    13  O    0.000001  -0.000043   0.004053  -0.051831  -0.006201  -0.000086
    14  O    0.002840  -0.063447   0.222526  -0.022331   0.002716   0.000084
    15  O    0.003972   0.000215   0.005666  -0.086640   0.512488  -0.079238
    16  H   -0.000137   0.000002   0.000931  -0.028706  -0.002689   0.002667
    17  C   -0.000000   0.000002   0.000080   0.009048  -0.000013   0.000000
    18  C   -0.000000   0.000000   0.000062  -0.000342   0.000000   0.000000
    19  C   -0.000000   0.000000  -0.000020   0.000310   0.000002   0.000000
    20  C    0.000000  -0.000000  -0.000000   0.000002  -0.000000  -0.000000
    21  H    0.000000  -0.000000   0.000001  -0.000011   0.000000  -0.000000
    22  C   -0.000000   0.000000   0.000000  -0.000003  -0.000000   0.000000
    23  H    0.000000   0.000000  -0.000011  -0.000100   0.000006  -0.000000
    24  C    0.000000   0.000000  -0.000000   0.000000   0.000000   0.000000
    25  H   -0.000000  -0.000000   0.000000  -0.000000   0.000000  -0.000000
    26  H    0.000000  -0.000000  -0.000000  -0.000000   0.000000  -0.000000
    27  H    0.000000  -0.000000  -0.000000   0.000000  -0.000000  -0.000000
    28  C   -0.000024   0.000854  -0.015626  -0.044577   0.005418  -0.000237
               7          8          9         10         11         12
     1  C    0.361600  -0.035100  -0.000028  -0.045520  -0.000041   0.000002
     2  C   -0.045379   0.349270   0.004712   0.005282   0.003098  -0.000320
     3  C    0.004957  -0.032629  -0.034286   0.000379  -0.038587   0.001584
     4  C   -0.000100   0.003542   0.345314   0.007844  -0.027639   0.000236
     5  C    0.004033   0.000337  -0.035231  -0.033367   0.000290   0.000008
     6  C   -0.037895   0.003840   0.006139   0.344306   0.000015  -0.000000
     7  H    0.595993  -0.004907  -0.000001  -0.007266   0.000002  -0.000000
     8  H   -0.004907   0.589265  -0.000076  -0.000152   0.000035  -0.000006
     9  C   -0.000001  -0.000076   4.770229  -0.000112  -0.041265   0.003239
    10  H   -0.007266  -0.000152  -0.000112   0.606675  -0.000000   0.000000
    11  C    0.000002   0.000035  -0.041265  -0.000000   4.890186   0.366469
    12  H   -0.000000  -0.000006   0.003239   0.000000   0.366469   0.495274
    13  O   -0.000000   0.000000   0.363048   0.000005   0.002763  -0.000035
    14  O   -0.000094  -0.000756  -0.029065   0.000002   0.295835  -0.033744
    15  O   -0.000069   0.000001  -0.006944   0.001810  -0.000015  -0.000000
    16  H    0.000002  -0.000000  -0.025469  -0.000060  -0.000144   0.000002
    17  C    0.000000  -0.000000  -0.041994  -0.000000  -0.044650  -0.001489
    18  C   -0.000000   0.000000   0.005199   0.000000  -0.009481   0.005276
    19  C    0.000000  -0.000000  -0.010961  -0.000000   0.003370  -0.000044
    20  C   -0.000000  -0.000000  -0.000124  -0.000000   0.000412  -0.000045
    21  H   -0.000000   0.000000   0.000273   0.000000   0.004376   0.001405
    22  C    0.000000  -0.000000   0.000287  -0.000000  -0.000104  -0.000001
    23  H   -0.000000   0.000000   0.002567   0.000000  -0.000055  -0.000004
    24  C    0.000000   0.000000  -0.000005  -0.000000   0.000010  -0.000008
    25  H   -0.000000   0.000000   0.000001   0.000000  -0.000007   0.000003
    26  H   -0.000000   0.000000  -0.000007   0.000000   0.000001   0.000000
    27  H    0.000000  -0.000000  -0.000000  -0.000000  -0.000000  -0.000000
    28  C    0.000000   0.000007   0.402523   0.000001   0.494866  -0.042615
              13         14         15         16         17         18
     1  C    0.000001   0.002840   0.003972  -0.000137  -0.000000  -0.000000
     2  C   -0.000043  -0.063447   0.000215   0.000002   0.000002   0.000000
     3  C    0.004053   0.222526   0.005666   0.000931   0.000080   0.000062
     4  C   -0.051831  -0.022331  -0.086640  -0.028706   0.009048  -0.000342
     5  C   -0.006201   0.002716   0.512488  -0.002689  -0.000013   0.000000
     6  C   -0.000086   0.000084  -0.079238   0.002667   0.000000   0.000000
     7  H   -0.000000  -0.000094  -0.000069   0.000002   0.000000  -0.000000
     8  H    0.000000  -0.000756   0.000001  -0.000000  -0.000000   0.000000
     9  C    0.363048  -0.029065  -0.006944  -0.025469  -0.041994   0.005199
    10  H    0.000005   0.000002   0.001810  -0.000060  -0.000000   0.000000
    11  C    0.002763   0.295835  -0.000015  -0.000144  -0.044650  -0.009481
    12  H   -0.000035  -0.033744  -0.000000   0.000002  -0.001489   0.005276
    13  O    8.194329   0.000026  -0.028229   0.186969  -0.004723  -0.000204
    14  O    0.000026   8.089250  -0.000016  -0.000023   0.002692   0.000009
    15  O   -0.028229  -0.000016   8.130087   0.099609   0.000002  -0.000000
    16  H    0.186969  -0.000023   0.099609   0.312377   0.000063   0.000004
    17  C   -0.004723   0.002692   0.000002   0.000063   4.783554   0.511096
    18  C   -0.000204   0.000009  -0.000000   0.000004   0.511096   5.010051
    19  C   -0.002375  -0.000028   0.000001   0.000179   0.529453  -0.045117
    20  C   -0.000001  -0.000001   0.000000  -0.000000  -0.019238   0.504810
    21  H   -0.000005  -0.000111  -0.000000  -0.000000  -0.048147   0.354368
    22  C   -0.000140   0.000000   0.000000   0.000005  -0.004962  -0.050031
    23  H    0.005031  -0.000001   0.000001   0.000093  -0.042597   0.006116
    24  C    0.000003  -0.000000  -0.000000   0.000000  -0.033730  -0.036797
    25  H    0.000000   0.000000   0.000000   0.000000   0.002835  -0.033355
    26  H   -0.000005  -0.000000  -0.000000  -0.000000   0.003645   0.000799
    27  H    0.000000   0.000000   0.000000  -0.000000   0.000467   0.005052
    28  C   -0.075611  -0.020263   0.000291   0.004631   0.304064  -0.042596
              19         20         21         22         23         24
     1  C   -0.000000   0.000000   0.000000  -0.000000   0.000000   0.000000
     2  C    0.000000  -0.000000  -0.000000   0.000000   0.000000   0.000000
     3  C   -0.000020  -0.000000   0.000001   0.000000  -0.000011  -0.000000
     4  C    0.000310   0.000002  -0.000011  -0.000003  -0.000100   0.000000
     5  C    0.000002  -0.000000   0.000000  -0.000000   0.000006   0.000000
     6  C    0.000000  -0.000000  -0.000000   0.000000  -0.000000   0.000000
     7  H    0.000000  -0.000000  -0.000000   0.000000  -0.000000   0.000000
     8  H   -0.000000  -0.000000   0.000000  -0.000000   0.000000   0.000000
     9  C   -0.010961  -0.000124   0.000273   0.000287   0.002567  -0.000005
    10  H   -0.000000  -0.000000   0.000000  -0.000000   0.000000  -0.000000
    11  C    0.003370   0.000412   0.004376  -0.000104  -0.000055   0.000010
    12  H   -0.000044  -0.000045   0.001405  -0.000001  -0.000004  -0.000008
    13  O   -0.002375  -0.000001  -0.000005  -0.000140   0.005031   0.000003
    14  O   -0.000028  -0.000001  -0.000111   0.000000  -0.000001  -0.000000
    15  O    0.000001   0.000000  -0.000000   0.000000   0.000001  -0.000000
    16  H    0.000179  -0.000000  -0.000000   0.000005   0.000093   0.000000
    17  C    0.529453  -0.019238  -0.048147  -0.004962  -0.042597  -0.033730
    18  C   -0.045117   0.504810   0.354368  -0.050031   0.006116  -0.036797
    19  C    4.942857  -0.044045   0.005236   0.513312   0.360790  -0.036711
    20  C   -0.044045   4.893642  -0.038255  -0.023187   0.000112   0.545938
    21  H    0.005236  -0.038255   0.589709   0.000367  -0.000149   0.004310
    22  C    0.513312  -0.023187   0.000367   4.879326  -0.043088   0.547094
    23  H    0.360790   0.000112  -0.000149  -0.043088   0.574500   0.005536
    24  C   -0.036711   0.545938   0.004310   0.547094   0.005536   4.834677
    25  H    0.000755   0.352210  -0.004442   0.004016   0.000014  -0.039456
    26  H   -0.039442   0.004516   0.000016   0.353556  -0.005674  -0.039900
    27  H    0.005733  -0.043198  -0.000175  -0.045377  -0.000199   0.361612
    28  C   -0.054314   0.006570  -0.006256   0.007844  -0.011530   0.000594
              25         26         27         28
     1  C   -0.000000   0.000000   0.000000  -0.000024
     2  C   -0.000000  -0.000000  -0.000000   0.000854
     3  C    0.000000  -0.000000  -0.000000  -0.015626
     4  C   -0.000000  -0.000000   0.000000  -0.044577
     5  C    0.000000   0.000000  -0.000000   0.005418
     6  C   -0.000000  -0.000000  -0.000000  -0.000237
     7  H   -0.000000  -0.000000   0.000000   0.000000
     8  H    0.000000   0.000000  -0.000000   0.000007
     9  C    0.000001  -0.000007  -0.000000   0.402523
    10  H    0.000000   0.000000  -0.000000   0.000001
    11  C   -0.000007   0.000001  -0.000000   0.494866
    12  H    0.000003   0.000000  -0.000000  -0.042615
    13  O    0.000000  -0.000005   0.000000  -0.075611
    14  O    0.000000  -0.000000   0.000000  -0.020263
    15  O    0.000000  -0.000000   0.000000   0.000291
    16  H    0.000000  -0.000000  -0.000000   0.004631
    17  C    0.002835   0.003645   0.000467   0.304064
    18  C   -0.033355   0.000799   0.005052  -0.042596
    19  C    0.000755  -0.039442   0.005733  -0.054314
    20  C    0.352210   0.004516  -0.043198   0.006570
    21  H   -0.004442   0.000016  -0.000175  -0.006256
    22  C    0.004016   0.353556  -0.045377   0.007844
    23  H    0.000014  -0.005674  -0.000199  -0.011530
    24  C   -0.039456  -0.039900   0.361612   0.000594
    25  H    0.583820  -0.000159  -0.005005  -0.000171
    26  H   -0.000159   0.591724  -0.006274  -0.000211
    27  H   -0.005005  -0.006274   0.588732  -0.000001
    28  C   -0.000171  -0.000211  -0.000001   5.117984
 Mulliken charges:
               1
     1  C   -0.099896
     2  C   -0.237009
     3  C    0.268769
     4  C   -0.019198
     5  C    0.392542
     6  C   -0.230786
     7  H    0.129124
     8  H    0.127327
     9  C    0.322034
    10  H    0.120173
    11  C    0.100261
    12  H    0.204813
    13  O   -0.586739
    14  O   -0.446099
    15  O   -0.552991
    16  H    0.449693
    17  C    0.094540
    18  C   -0.184919
    19  C   -0.128942
    20  C   -0.140117
    21  H    0.137493
    22  C   -0.138915
    23  H    0.148640
    24  C   -0.113167
    25  H    0.138940
    26  H    0.137415
    27  H    0.138633
    28  C   -0.031615
 Sum of Mulliken charges =  -0.00000
 Mulliken charges with hydrogens summed into heavy atoms:
               1
     1  C    0.029227
     2  C   -0.109682
     3  C    0.268769
     4  C   -0.019198
     5  C    0.392542
     6  C   -0.110613
     9  C    0.322034
    11  C    0.305074
    13  O   -0.137046
    14  O   -0.446099
    15  O   -0.552991
    17  C    0.094540
    18  C   -0.047426
    19  C    0.019698
    20  C   -0.001178
    22  C   -0.001500
    24  C    0.025466
    28  C   -0.031615
 Electronic spatial extent (au):  <R**2>=           4937.4437
 Charge=             -0.0000 electrons
 Dipole moment (field-independent basis, Debye):
    X=             -4.4604    Y=             -3.4927    Z=              0.8404  Tot=              5.7272
 Quadrupole moment (field-independent basis, Debye-Ang):
   XX=            -96.7263   YY=           -101.6761   ZZ=           -102.7556
   XY=             -5.5725   XZ=              1.5023   YZ=              3.9853
 Traceless Quadrupole moment (field-independent basis, Debye-Ang):
   XX=              3.6597   YY=             -1.2901   ZZ=             -2.3696
   XY=             -5.5725   XZ=              1.5023   YZ=              3.9853
 Octapole moment (field-independent basis, Debye-Ang**2):
  XXX=            -44.5357  YYY=            -21.3445  ZZZ=             -3.7239  XYY=            -24.0084
  XXY=            -16.6083  XXZ=             -0.1695  XZZ=             -5.5214  YZZ=              3.9221
  YYZ=              7.8222  XYZ=            -10.0661
 Hexadecapole moment (field-independent basis, Debye-Ang**3):
 XXXX=          -4867.2812 YYYY=          -1083.8052 ZZZZ=           -220.0734 XXXY=           -103.9461
 XXXZ=             38.7181 YYYX=            -39.3430 YYYZ=              7.1324 ZZZX=             -9.6126
 ZZZY=              0.7239 XXYY=          -1087.9437 XXZZ=           -979.7321 YYZZ=           -212.1573
 XXYZ=             52.1213 YYXZ=             11.5495 ZZXY=              5.0134
 N-N= 1.204411251390D+03 E-N=-4.277446123995D+03  KE= 7.959596946499D+02
 No NMR shielding tensors so no spin-rotation constants.
 Leave Link  601 at Sat Apr  3 18:04:44 2021, MaxMem=   805306368 cpu:               1.1 elap:               0.2
 (Enter /public/home/lyb//g16/l701.exe)
 ... and contract with generalized density number  6.
 Compute integral first derivatives.
 R6Disp: Adding Grimme-D3 dispersion energy 1st derivatives to the gradient.
 Leave Link  701 at Sat Apr  3 18:04:44 2021, MaxMem=   805306368 cpu:               1.1 elap:               0.2
 (Enter /public/home/lyb//g16/l702.exe)
 L702 exits ... SP integral derivatives will be done elsewhere.
 Leave Link  702 at Sat Apr  3 18:04:44 2021, MaxMem=   805306368 cpu:               0.2 elap:               0.0
 (Enter /public/home/lyb//g16/l703.exe)
 Integral derivatives from FoFJK, PRISM(SPDF).
 Compute integral first derivatives, UseDBF=F ICtDFT=           0.
 Calling FoFJK, ICntrl=  10005127 FMM=F ISym2X=0 I1Cent= 0 IOpClX= 0 NMat=1 NMatS=1 NMatT=0.
 FoFJK:  IHMeth= 1 ICntrl=10005127 DoSepK=F KAlg= 0 I1Cent=           0 FoldK=F
 IRaf=         0 NMat=       1 IRICut=       1 DoRegI=T DoRafI=F ISym2E= 0 IDoP0=0 IntGTp=1.
 FoFCou: FMM=F IPFlag=           0 FMFlag=      100000 FMFlg1=         800
         NFxFlg=           0 DoJE=F BraDBF=F KetDBF=F FulRan=T
         wScrn=  0.000000 ICntrl=  10005127 IOpCl=  0 I1Cent=           0 NGrid=           0
         NMat0=    1 NMatS0=      1 NMatT0=    0 NMatD0=    1 NMtDS0=    0 NMtDT0=    0
 Symmetry not used in FoFCou.
 Leave Link  703 at Sat Apr  3 18:05:00 2021, MaxMem=   805306368 cpu:              96.9 elap:              15.3
 (Enter /public/home/lyb//g16/l716.exe)
 Dipole        = 7.87565645D-01-1.02766789D+00 2.98552306D-01
 ***** Axes restored to original set *****
 -------------------------------------------------------------------
 Center     Atomic                   Forces (Hartrees/Bohr)
 Number     Number              X              Y              Z
 -------------------------------------------------------------------
      1        6           0.083194466   -0.019746280    0.001143136
      2        6          -0.053116405    0.011777414   -0.001986247
      3        6          -0.002786620   -0.023366296   -0.004109013
      4        6           0.021651791    0.025170732   -0.000886980
      5        6          -0.045794486   -0.124280779   -0.038762037
      6        6          -0.004150244   -0.013328381    0.010005149
      7        1          -0.050567140   -0.006856184   -0.005138991
      8        1           0.021253744    0.033286627    0.009690712
      9        6          -0.006568989   -0.048416317   -0.000418062
     10        1          -0.001078788    0.011107808   -0.001114627
     11        6           0.008945652    0.037008580    0.012187780
     12        1          -0.000134214   -0.002162352    0.000296658
     13        8          -0.001527052    0.033427662    0.004979852
     14        8          -0.003156150   -0.026883444   -0.010201965
     15        8           0.036537340    0.111812399    0.029118838
     16        1           0.001796929    0.019389804    0.004076477
     17        6           0.023770710   -0.012147845   -0.000805469
     18        6           0.026130554    0.006062575    0.006920889
     19        6           0.020812860   -0.018628835    0.017850030
     20        6           0.006242105   -0.014161604    0.022098138
     21        1          -0.005606515   -0.002285404   -0.003123137
     22        6          -0.017525723    0.035376970   -0.020214427
     23        1          -0.013602131    0.013953009   -0.010171894
     24        6           0.003226120   -0.003177603   -0.015738895
     25        1          -0.022220256    0.014250472   -0.015545946
     26        1          -0.001431248   -0.020358380    0.012831181
     27        1           0.013789500   -0.003374758    0.008495904
     28        6          -0.038085809   -0.013449591   -0.011477055
 -------------------------------------------------------------------
 Cartesian Forces:  Max     0.124280779 RMS     0.028111595
 Z-matrix is all fixed cartesians, so copy forces.
 Leave Link  716 at Sat Apr  3 18:05:00 2021, MaxMem=   805306368 cpu:               0.3 elap:               0.1
 (Enter /public/home/lyb//g16/l103.exe)

 GradGradGradGradGradGradGradGradGradGradGradGradGradGradGradGradGradGrad
 Berny optimization.
 Search for a local minimum.
 Step number   1 out of a maximum of    2
 All quantities printed in internal units (Hartrees-Bohrs-Radians)
 Second derivative matrix not updated -- first step.
 ITU=  0
     Eigenvalues ---    0.00079   0.00091   0.00161   0.00335   0.00525
     Eigenvalues ---    0.00774   0.01278   0.01340   0.01549   0.01640
     Eigenvalues ---    0.01794   0.02102   0.02766   0.03323   0.03809
     Eigenvalues ---    0.04500   0.04770   0.05078   0.06466   0.06574
     Eigenvalues ---    0.06818   0.07055   0.07089   0.07308   0.07504
     Eigenvalues ---    0.07564   0.08243   0.09206   0.09536   0.09968
     Eigenvalues ---    0.11198   0.12123   0.12412   0.12931   0.13702
     Eigenvalues ---    0.14498   0.17723   0.18508   0.19517   0.23129
     Eigenvalues ---    0.24115   0.25481   0.25838   0.28933   0.29141
     Eigenvalues ---    0.30153   0.33633   0.34823   0.35680   0.41458
     Eigenvalues ---    0.43199   0.45633   0.46560   0.52158   0.59582
     Eigenvalues ---    0.65140   0.68556   0.73512   0.81354   0.89959
     Eigenvalues ---    0.95361   1.03852   1.09020   1.11323   1.15123
     Eigenvalues ---    1.18705   1.20651   1.28831   1.36038   1.40101
     Eigenvalues ---    1.42888   1.46599   1.57016   1.59994   1.65042
     Eigenvalues ---    1.73436   1.87561   2.62678
 Quadratic step=1.477D+00 exceeds max=3.000D-01 adjusted using Lamda=-1.166D-01.
 Angle between NR and scaled steps=  60.84 degrees.
 Angle between quadratic step and forces=  48.28 degrees.
 Linear search not attempted -- first point.
 B after Tr=     0.001630   -0.006074   -0.001436
         Rot=    1.000000    0.000062   -0.000084   -0.000340 Ang=   0.04 deg.
 Variable       Old X    -DE/DX   Delta X   Delta X   Delta X     New X
                                 (Linear)    (Quad)   (Total)
    X1       -7.75183   0.08319   0.00000   0.03482   0.03616  -7.71567
    Y1        0.47831  -0.01975   0.00000  -0.02614  -0.03745   0.44086
    Z1        0.11030   0.00114   0.00000   0.01296   0.01277   0.12307
    X2       -5.85920  -0.05312   0.00000  -0.04617  -0.04355  -5.90275
    Y2       -1.49183   0.01178   0.00000   0.02809   0.01800  -1.47382
    Z2       -0.00470  -0.00199   0.00000   0.00653   0.00627   0.00158
    X3       -3.28201  -0.00279   0.00000  -0.01071  -0.00856  -3.29058
    Y3       -0.65900  -0.02337   0.00000  -0.03993  -0.04821  -0.70721
    Z3        0.27820  -0.00411   0.00000  -0.02120  -0.02200   0.25621
    X4       -2.56360   0.02165   0.00000   0.01372   0.01427  -2.54933
    Y4        1.75279   0.02517   0.00000  -0.01369  -0.02143   1.73136
    Z4        0.57855  -0.00089   0.00000  -0.01557  -0.01679   0.56176
    X5       -4.39004  -0.04579   0.00000  -0.01926  -0.02003  -4.41007
    Y5        3.80715  -0.12428   0.00000  -0.04587  -0.05483   3.75232
    Z5        0.90355  -0.03876   0.00000  -0.01247  -0.01363   0.88992
    X6       -7.04103  -0.00415   0.00000  -0.01017  -0.01047  -7.05151
    Y6        2.99493  -0.01333   0.00000  -0.03133  -0.04214   2.95279
    Z6        0.43703   0.01001   0.00000   0.04359   0.04297   0.48000
    X7       -9.58381  -0.05057   0.00000  -0.07790  -0.07617  -9.65998
    Y7       -0.14677  -0.00686   0.00000   0.01047  -0.00217  -0.14894
    Z7        0.07151  -0.00514   0.00000  -0.03025  -0.03004   0.04147
    X8       -6.51142   0.02125   0.00000   0.04860   0.05251  -6.45891
    Y8       -3.52471   0.03329   0.00000   0.09273   0.08222  -3.44249
    Z8       -0.38500   0.00969   0.00000   0.03567   0.03574  -0.34925
    X9        0.23721  -0.00657   0.00000  -0.01225  -0.01205   0.22515
    Y9        2.26876  -0.04842   0.00000  -0.02285  -0.02871   2.24005
    Z9        0.50982  -0.00042   0.00000   0.00759   0.00584   0.51566
   X10       -8.53753  -0.00108   0.00000   0.00991   0.00869  -8.52884
   Y10        4.34263   0.01111   0.00000   0.02981   0.01803   4.36065
   Z10        0.71233  -0.00111   0.00000  -0.00414  -0.00469   0.70764
   X11        0.91181   0.00895   0.00000  -0.01178  -0.00869   0.90312
   Y11       -2.21047   0.03701   0.00000   0.03019   0.02471  -2.18576
   Z11       -0.16104   0.01219   0.00000   0.01890   0.01758  -0.14345
   X12        1.95702  -0.00013   0.00000  -0.00223   0.00196   1.95898
   Y12       -3.91801  -0.00216   0.00000   0.02402   0.01922  -3.89880
   Z12       -0.49874   0.00030   0.00000   0.01305   0.01177  -0.48697
   X13        1.02347  -0.00153   0.00000  -0.03437  -0.03575   0.98772
   Y13        4.58328   0.03343   0.00000   0.03936   0.03406   4.61734
   Z13        0.77328   0.00498   0.00000   0.01776   0.01558   0.78886
   X14       -1.63097  -0.00316   0.00000  -0.01915  -0.01572  -1.64669
   Y14       -2.55559  -0.02688   0.00000  -0.06320  -0.07037  -2.62596
   Z14        0.17769  -0.01020   0.00000  -0.04868  -0.04952   0.12817
   X15       -3.89920   0.03654   0.00000   0.05098   0.04883  -3.85037
   Y15        5.88340   0.11181   0.00000   0.04829   0.03979   5.92319
   Z15        1.53224   0.02912   0.00000  -0.02688  -0.02840   1.50384
   X16       -0.54973   0.00180   0.00000   0.00876   0.00677  -0.54296
   Y16        5.50253   0.01939   0.00000   0.11823   0.11193   5.61446
   Z16        1.13665   0.00408   0.00000   0.02873   0.02669   1.16334
   X17        4.60982   0.02377   0.00000   0.03020   0.03138   4.64120
   Y17        0.73332  -0.01215   0.00000  -0.03687  -0.03978   0.69355
   Z17        0.10226  -0.00081   0.00000  -0.00166  -0.00397   0.09829
   X18        6.16951   0.02613   0.00000   0.04574   0.04828   6.21779
   Y18       -0.99749   0.00606   0.00000   0.00568   0.00401  -0.99348
   Z18        1.38581   0.00692   0.00000   0.03104   0.02868   1.41449
   X19        5.73161   0.02081   0.00000   0.01359   0.01319   5.74480
   Y19        2.67460  -0.01863   0.00000  -0.01380  -0.01613   2.65847
   Z19       -1.32081   0.01785   0.00000   0.01873   0.01600  -1.30481
   X20        8.82003   0.00624   0.00000   0.01735   0.01968   8.83970
   Y20       -0.68859  -0.01416   0.00000   0.01355   0.01366  -0.67493
   Z20        1.40187   0.02210   0.00000   0.02671   0.02388   1.42574
   X21        5.38830  -0.00561   0.00000  -0.00510  -0.00135   5.38695
   Y21       -2.46684  -0.00229   0.00000  -0.00827  -0.01037  -2.47721
   Z21        2.57758  -0.00312   0.00000  -0.01052  -0.01255   2.56503
   X22        8.36152  -0.01753   0.00000  -0.01061  -0.01123   8.35029
   Y22        2.95504   0.03538   0.00000   0.03631   0.03575   2.99079
   Z22       -1.23833  -0.02021   0.00000  -0.01408  -0.01729  -1.25562
   X23        4.62411  -0.01360   0.00000  -0.03001  -0.03145   4.59267
   Y23        3.88702   0.01395   0.00000   0.01650   0.01325   3.90027
   Z23       -2.44999  -0.01017   0.00000   0.00787   0.00518  -2.44481
   X24        9.87118   0.00323   0.00000   0.01816   0.01887   9.89005
   Y24        1.38938  -0.00318   0.00000  -0.00475  -0.00408   1.38530
   Z24        0.19979  -0.01574   0.00000  -0.04211  -0.04538   0.15441
   X25       10.12436  -0.02222   0.00000  -0.05341  -0.05003  10.07433
   Y25       -1.97692   0.01425   0.00000   0.02717   0.02825  -1.94866
   Z25        2.52688  -0.01555   0.00000  -0.02335  -0.02624   2.50064
   X26        9.12994  -0.00143   0.00000   0.00783   0.00595   9.13589
   Y26        4.60674  -0.02036   0.00000  -0.02877  -0.02892   4.57782
   Z26       -2.33835   0.01283   0.00000   0.02249   0.01895  -2.31940
   X27       11.85783   0.01379   0.00000   0.04745   0.04793  11.90576
   Y27        1.73418  -0.00337   0.00000  -0.02308  -0.02105   1.71313
   Z27        0.04154   0.00850   0.00000   0.02772   0.02407   0.06561
   X28        1.93268  -0.03809   0.00000  -0.03087  -0.02940   1.90328
   Y28        0.29578  -0.01345   0.00000  -0.01248  -0.01724   0.27854
   Z28        0.21308  -0.01148   0.00000  -0.01969  -0.02148   0.19160
         Item               Value     Threshold  Converged?
 Maximum Force            0.124281     0.000450     NO 
 RMS     Force            0.028112     0.000300     NO 
 Maximum Displacement     0.111932     0.001800     NO 
 RMS     Displacement     0.032451     0.001200     NO 
 Predicted change in Energy=-3.096909D-02
 GradGradGradGradGradGradGradGradGradGradGradGradGradGradGradGradGradGrad

 Leave Link  103 at Sat Apr  3 18:05:00 2021, MaxMem=   805306368 cpu:               0.5 elap:               0.1
 (Enter /public/home/lyb//g16/l9999.exe)
 Electronic transition elements 
                 1             2             3             4             5 
      1  -0.803182D+03 -0.803123D+03 -0.803116D+03 -0.803096D+03 -0.803093D+03
      2  -0.555495D-01 -0.810268D-02 -0.133820D+01 -0.267651D-01  0.106400D+00
      3   0.335507D+00 -0.104478D-03  0.263427D+00  0.193676D-01  0.405528D+00
      4   0.685849D-01  0.980896D-02  0.467964D-01 -0.436984D-01  0.476421D-01
      5   0.801920D-02  0.199625D-02  0.155615D+00  0.454908D-02 -0.212352D-01
      6  -0.271087D-01  0.604136D-03 -0.370378D-01 -0.222283D-02 -0.548648D-01
      7  -0.362453D-02 -0.174083D-02 -0.583640D-02  0.125023D-01 -0.111113D-01
      8  -0.228478D-01  0.116961D-01  0.149876D-01  0.987033D-02 -0.141920D-01
      9   0.285440D-01  0.120425D+00 -0.999371D-01 -0.153276D+00  0.163564D-01
     10  -0.262087D+00  0.652495D-01  0.991407D+00 -0.140153D+00 -0.199417D+00
     11  -0.697455D-01  0.223315D-01 -0.199161D+00  0.618795D-01 -0.490598D+00
     12   0.103974D-01 -0.696207D-02 -0.150126D+00 -0.236296D-01  0.206809D+00
     13  -0.369068D-02 -0.541863D-02  0.186617D-01 -0.451331D-02 -0.983379D-03
     14   0.987128D-01  0.605535D-03  0.208001D+00 -0.247912D-01 -0.727383D-01
     15   0.113993D-01 -0.153767D-02  0.435846D-02  0.531457D-01  0.769600D-02
     16  -0.104550D-02 -0.175197D-01 -0.595317D-01 -0.139834D-01  0.572447D-01
                 6 
      1  -0.803090D+03
      2  -0.981918D-01
      3  -0.360684D-01
      4  -0.882621D-01
      5   0.148524D-01
      6   0.321185D-02
      7   0.170946D-01
      8  -0.158615D-01
      9  -0.154762D+00
     10  -0.713712D-01
     11   0.203170D+00
     12  -0.623144D-01
     13  -0.228884D-02
     14  -0.493812D-01
     15   0.659365D-01
     16  -0.283680D-01
 1\1\GINC-SMP1\Force\RB3LYP TD-FC\6-31G(d)\C15H10O3\LYB\03-Apr-2021\0\\
 #p force b3lyp em=gd3 td=(nstates=6,root=1) 6-31G* guess=read\\This is
  test\\0,1\C,-4.1020910578,0.2531107418,0.0583675784\C,-3.1005554611,-
 0.7894405131,-0.0024853703\C,-1.7367674492,-0.3487301089,0.147219671\C
 ,-1.3565973653,0.9275365626,0.3061531631\C,-2.3231098817,2.0146550446,
 0.4781387484\C,-3.7259552475,1.5848471304,0.2312637446\H,-5.0715353773
 ,-0.0776664783,0.0378428899\H,-3.4456934498,-1.8651961437,-0.203731838
 \C,0.1255253313,1.2005742899,0.2697854548\H,-4.5178661302,2.298019367,
 0.37694938\C,0.4825110374,-1.1697307109,-0.0852175749\H,1.0356096709,-
 2.0733226383,-0.2639205824\O,0.5415952038,2.4253679387,0.4092004437\O,
 -0.8630722871,-1.3523579998,0.094030282\O,-2.0633684538,3.1133597669,0
 .8108286597\H,-0.2909022302,2.9118147334,0.6014894573\C,2.4394126478,0
 .3880584538,0.0541111361\C,3.2647646261,-0.5278479408,0.7333396271\C,3
 .0330359796,1.415338745,-0.698944501\C,4.6673568304,-0.3643861181,0.74
 18359263\H,2.8513655914,-1.3053951976,1.3639953587\C,4.4247237041,1.56
 37378251,-0.6552963523\H,2.4469759856,2.0569226691,-1.296477307\C,5.22
 36015374,0.7352273673,0.1057242103\H,5.3575826678,-1.0461391847,1.3371
 676615\H,4.831354702,2.4377838199,-1.2374039216\H,6.2748940561,0.91769
 06164,0.0219831397\C,1.0227303585,0.1565194662,0.1127578574\\Version=E
 M64L-G16RevA.03\State=1-A\HF=-803.2328722\RMSD=4.395e-09\RMSF=2.811e-0
 2\Dipole=-0.837922,-0.9881263,-0.2949364\PG=C01 [X(C15H10O3)]\\@


 THE RARE EARTHS PERPLEX US IN OUR RESEARCHES,
 BAFFLE US IN OUR SPECULATIONS, AND HAUNT US IN OUR
 VERY DREAMS.  THEY STRETCH LIKE AN UNKNOWN BEFORE US,
 MOCKING, MYSTIFYING, AND MURMURING STRANGE REVELATIONS
 AND POSSIBILITIES.  -- SIR WILLIAM CROOKE, 1832-1919
 Job cpu time:       0 days  1 hours 14 minutes 52.1 seconds.
 Elapsed time:       0 days  0 hours 10 minutes 52.2 seconds.
 File lengths (MBytes):  RWF=    572 Int=      0 D2E=      0 Chk=     37 Scr=      1
 Normal termination of Gaussian 16 at Sat Apr  3 18:05:00 2021.
