 Entering Gaussian System, Link 0=g16
 Input=gauss_d.gjf
 Output=gauss_d.log
 Initial command:
 /public/home/lyb//g16/l1.exe "/tmp/Gau-421041.inp" -scrdir="/tmp/"
 Entering Link 1 = /public/home/lyb//g16/l1.exe PID=    421042.
  
 Copyright (c) 1988,1990,1992,1993,1995,1998,2003,2009,2016,
            Gaussian, Inc.  All Rights Reserved.
  
 This is part of the Gaussian(R) 16 program.  It is based on
 the Gaussian(R) 09 system (copyright 2009, Gaussian, Inc.),
 the Gaussian(R) 03 system (copyright 2003, Gaussian, Inc.),
 the Gaussian(R) 98 system (copyright 1998, Gaussian, Inc.),
 the Gaussian(R) 94 system (copyright 1995, Gaussian, Inc.),
 the Gaussian 92(TM) system (copyright 1992, Gaussian, Inc.),
 the Gaussian 90(TM) system (copyright 1990, Gaussian, Inc.),
 the Gaussian 88(TM) system (copyright 1988, Gaussian, Inc.),
 the Gaussian 86(TM) system (copyright 1986, Carnegie Mellon
 University), and the Gaussian 82(TM) system (copyright 1983,
 Carnegie Mellon University). Gaussian is a federally registered
 trademark of Gaussian, Inc.
  
 This software contains proprietary and confidential information,
 including trade secrets, belonging to Gaussian, Inc.
  
 This software is provided under written license and may be
 used, copied, transmitted, or stored only in accord with that
 written license.
  
 The following legend is applicable only to US Government
 contracts under FAR:
  
                    RESTRICTED RIGHTS LEGEND
  
 Use, reproduction and disclosure by the US Government is
 subject to restrictions as set forth in subparagraphs (a)
 and (c) of the Commercial Computer Software - Restricted
 Rights clause in FAR 52.227-19.
  
 Gaussian, Inc.
 340 Quinnipiac St., Bldg. 40, Wallingford CT 06492
  
  
 ---------------------------------------------------------------
 Warning -- This program may not be used in any manner that
 competes with the business of Gaussian, Inc. or will provide
 assistance to any competitor of Gaussian, Inc.  The licensee
 of this program is prohibited from giving any competitor of
 Gaussian, Inc. access to this program.  By using this program,
 the user acknowledges that Gaussian, Inc. is engaged in the
 business of creating and licensing software in the field of
 computational chemistry and represents and warrants to the
 licensee that it is not a competitor of Gaussian, Inc. and that
 it will not use this program in any manner prohibited above.
 ---------------------------------------------------------------
  

 Cite this work as:
 Gaussian 16, Revision A.03,
 M. J. Frisch, G. W. Trucks, H. B. Schlegel, G. E. Scuseria, 
 M. A. Robb, J. R. Cheeseman, G. Scalmani, V. Barone, 
 G. A. Petersson, H. Nakatsuji, X. Li, M. Caricato, A. V. Marenich, 
 J. Bloino, B. G. Janesko, R. Gomperts, B. Mennucci, H. P. Hratchian, 
 J. V. Ortiz, A. F. Izmaylov, J. L. Sonnenberg, D. Williams-Young, 
 F. Ding, F. Lipparini, F. Egidi, J. Goings, B. Peng, A. Petrone, 
 T. Henderson, D. Ranasinghe, V. G. Zakrzewski, J. Gao, N. Rega, 
 G. Zheng, W. Liang, M. Hada, M. Ehara, K. Toyota, R. Fukuda, 
 J. Hasegawa, M. Ishida, T. Nakajima, Y. Honda, O. Kitao, H. Nakai, 
 T. Vreven, K. Throssell, J. A. Montgomery, Jr., J. E. Peralta, 
 F. Ogliaro, M. J. Bearpark, J. J. Heyd, E. N. Brothers, K. N. Kudin, 
 V. N. Staroverov, T. A. Keith, R. Kobayashi, J. Normand, 
 K. Raghavachari, A. P. Rendell, J. C. Burant, S. S. Iyengar, 
 J. Tomasi, M. Cossi, J. M. Millam, M. Klene, C. Adamo, R. Cammi, 
 J. W. Ochterski, R. L. Martin, K. Morokuma, O. Farkas, 
 J. B. Foresman, and D. J. Fox, Gaussian, Inc., Wallingford CT, 2016.
 
 ******************************************
 Gaussian 16:  EM64L-G16RevA.03 25-Dec-2016
                29-Mar-2021 
 ******************************************
 %chk=gauss.chk
 %nprocs=8
 Will use up to    8 processors via shared memory.
 %mem=6GB
 -------------------------------------------------------------
 #p force b3lyp em=gd3 td=(nstates=6,root=1) 6-31G* guess=read
 -------------------------------------------------------------
 1/10=7,30=1,38=1/1,3;
 2/12=2,17=6,18=5,40=1/2;
 3/5=1,6=6,7=1,11=9,25=1,30=1,71=1,74=-5,116=-2,124=31/1,2,3,8;
 4/5=1/1;
 5/5=2,38=6/2;
 8/6=1,10=2,107=1,108=6/1;
 9/8=1,15=2,41=6,42=1,70=2/14;
 10/5=4,28=1/2;
 6/7=2,8=2,9=2,10=2,18=1/1;
 7/12=6,13=5,14=1,29=1/1,2,3,16;
 1/10=7,30=1/3;
 99//99;
 Leave Link    1 at Mon Mar 29 16:02:01 2021, MaxMem=   805306368 cpu:               0.3 elap:               0.0
 (Enter /public/home/lyb//g16/l101.exe)
 ------------
 This is test
 ------------
 Symbolic Z-matrix:
 Charge =  0 Multiplicity = 1
 C                    -4.3763   -0.61805   0.00861 
 C                    -3.35492  -1.54628  -0.15562 
 C                    -1.99756  -1.14094  -0.10125 
 C                    -1.66894   0.24298   0.08536 
 C                    -2.75746   1.17309   0.19591 
 C                    -4.10854   0.76061   0.17931 
 H                    -5.42194  -0.89744   0.00092 
 H                    -3.53583  -2.59642  -0.35193 
 C                    -0.26331   0.56401  -0.01669 
 H                    -4.85304   1.52615   0.33809 
 C                     0.31231  -1.74178  -0.19742 
 H                     0.8636   -2.65366  -0.28486 
 O                     0.10179   1.86815   0.15896 
 O                    -1.04254  -2.07803  -0.3502 
 O                    -2.46699   2.5295    0.27355 
 H                    -1.46785   2.64629   0.27195 
 C                     2.18435  -0.18141  -0.01172 
 C                     3.01752  -1.09404   0.64007 
 C                     2.70644   0.95118  -0.6619 
 C                     4.39623  -0.86379   0.61899 
 H                     2.63683  -1.92668   1.21596 
 C                     4.10368   1.22328  -0.58931 
 H                     2.10486   1.69139  -1.18866 
 C                     4.92339   0.33167   0.07849 
 H                     5.05729  -1.57265   1.09705 
 H                     4.46675   2.13555  -1.05408 
 H                     5.97969   0.52466   0.17419 
 C                     0.71598  -0.44828  -0.05174 
 
 ITRead=  0  0  0  0  0  0  0  0  0  0  0  0  0  0  0  0  0  0  0  0
 ITRead=  0  0  0  0  0  0  0  0
 MicOpt= -1 -1 -1 -1 -1 -1 -1 -1 -1 -1 -1 -1 -1 -1 -1 -1 -1 -1 -1 -1
 MicOpt= -1 -1 -1 -1 -1 -1 -1 -1
 NAtoms=     28 NQM=       28 NQMF=       0 NMMI=      0 NMMIF=      0
                NMic=       0 NMicF=      0.
                    Isotopes and Nuclear Properties:
 (Nuclear quadrupole moments (NQMom) in fm**2, nuclear magnetic moments (NMagM)
  in nuclear magnetons)

  Atom         1           2           3           4           5           6           7           8           9          10
 IAtWgt=          12          12          12          12          12          12           1           1          12           1
 AtmWgt=  12.0000000  12.0000000  12.0000000  12.0000000  12.0000000  12.0000000   1.0078250   1.0078250  12.0000000   1.0078250
 NucSpn=           0           0           0           0           0           0           1           1           0           1
 AtZEff=  -0.0000000  -0.0000000  -0.0000000  -0.0000000  -0.0000000  -0.0000000  -0.0000000  -0.0000000  -0.0000000  -0.0000000
 NQMom=    0.0000000   0.0000000   0.0000000   0.0000000   0.0000000   0.0000000   0.0000000   0.0000000   0.0000000   0.0000000
 NMagM=    0.0000000   0.0000000   0.0000000   0.0000000   0.0000000   0.0000000   2.7928460   2.7928460   0.0000000   2.7928460
 AtZNuc=   6.0000000   6.0000000   6.0000000   6.0000000   6.0000000   6.0000000   1.0000000   1.0000000   6.0000000   1.0000000

  Atom        11          12          13          14          15          16          17          18          19          20
 IAtWgt=          12           1          16          16          16           1          12          12          12          12
 AtmWgt=  12.0000000   1.0078250  15.9949146  15.9949146  15.9949146   1.0078250  12.0000000  12.0000000  12.0000000  12.0000000
 NucSpn=           0           1           0           0           0           1           0           0           0           0
 AtZEff=  -0.0000000  -0.0000000  -0.0000000  -0.0000000  -0.0000000  -0.0000000  -0.0000000  -0.0000000  -0.0000000  -0.0000000
 NQMom=    0.0000000   0.0000000   0.0000000   0.0000000   0.0000000   0.0000000   0.0000000   0.0000000   0.0000000   0.0000000
 NMagM=    0.0000000   2.7928460   0.0000000   0.0000000   0.0000000   2.7928460   0.0000000   0.0000000   0.0000000   0.0000000
 AtZNuc=   6.0000000   1.0000000   8.0000000   8.0000000   8.0000000   1.0000000   6.0000000   6.0000000   6.0000000   6.0000000

  Atom        21          22          23          24          25          26          27          28
 IAtWgt=           1          12           1          12           1           1           1          12
 AtmWgt=   1.0078250  12.0000000   1.0078250  12.0000000   1.0078250   1.0078250   1.0078250  12.0000000
 NucSpn=           1           0           1           0           1           1           1           0
 AtZEff=  -0.0000000  -0.0000000  -0.0000000  -0.0000000  -0.0000000  -0.0000000  -0.0000000  -0.0000000
 NQMom=    0.0000000   0.0000000   0.0000000   0.0000000   0.0000000   0.0000000   0.0000000   0.0000000
 NMagM=    2.7928460   0.0000000   2.7928460   0.0000000   2.7928460   2.7928460   2.7928460   0.0000000
 AtZNuc=   1.0000000   6.0000000   1.0000000   6.0000000   1.0000000   1.0000000   1.0000000   6.0000000
 Leave Link  101 at Mon Mar 29 16:02:01 2021, MaxMem=   805306368 cpu:               0.8 elap:               0.1
 (Enter /public/home/lyb//g16/l103.exe)

 GradGradGradGradGradGradGradGradGradGradGradGradGradGradGradGradGradGrad
 Berny optimization.
 Initialization pass.
 Trust Radius=3.00D-01 FncErr=1.00D-07 GrdErr=1.00D-07 EigMax=2.50D+02 EigMin=1.00D-04
 Number of steps in this run=      2 maximum allowed number of steps=      2.
 GradGradGradGradGradGradGradGradGradGradGradGradGradGradGradGradGradGrad

 Leave Link  103 at Mon Mar 29 16:02:01 2021, MaxMem=   805306368 cpu:               0.1 elap:               0.0
 (Enter /public/home/lyb//g16/l202.exe)
                          Input orientation:                          
 ---------------------------------------------------------------------
 Center     Atomic      Atomic             Coordinates (Angstroms)
 Number     Number       Type             X           Y           Z
 ---------------------------------------------------------------------
      1          6           0       -4.376301   -0.618052    0.008612
      2          6           0       -3.354924   -1.546278   -0.155622
      3          6           0       -1.997557   -1.140937   -0.101248
      4          6           0       -1.668938    0.242977    0.085364
      5          6           0       -2.757464    1.173090    0.195907
      6          6           0       -4.108544    0.760606    0.179315
      7          1           0       -5.421944   -0.897437    0.000921
      8          1           0       -3.535826   -2.596421   -0.351931
      9          6           0       -0.263311    0.564008   -0.016695
     10          1           0       -4.853040    1.526153    0.338086
     11          6           0        0.312308   -1.741775   -0.197424
     12          1           0        0.863600   -2.653660   -0.284863
     13          8           0        0.101794    1.868146    0.158956
     14          8           0       -1.042543   -2.078033   -0.350199
     15          8           0       -2.466990    2.529497    0.273545
     16          1           0       -1.467848    2.646286    0.271949
     17          6           0        2.184355   -0.181408   -0.011721
     18          6           0        3.017518   -1.094036    0.640073
     19          6           0        2.706440    0.951179   -0.661904
     20          6           0        4.396233   -0.863790    0.618989
     21          1           0        2.636833   -1.926682    1.215962
     22          6           0        4.103681    1.223281   -0.589309
     23          1           0        2.104855    1.691391   -1.188660
     24          6           0        4.923392    0.331672    0.078488
     25          1           0        5.057293   -1.572646    1.097052
     26          1           0        4.466754    2.135553   -1.054080
     27          1           0        5.979690    0.524662    0.174186
     28          6           0        0.715980   -0.448280   -0.051744
 ---------------------------------------------------------------------
                    Distance matrix (angstroms):
                    1          2          3          4          5
     1  C    0.000000
     2  C    1.389887   0.000000
     3  C    2.438012   1.417640   0.000000
     4  C    2.842020   2.470233   1.434584   0.000000
     5  C    2.421550   2.806330   2.453667   1.436042   0.000000
     6  C    1.414755   2.449864   2.854969   2.495684   1.412740
     7  H    1.082351   2.172113   3.434554   3.923357   3.380023
     8  H    2.179526   1.083542   2.132497   3.426175   3.887825
     9  C    4.279556   3.745755   2.433433   1.445429   2.576234
    10  H    2.221137   3.453683   3.931942   3.442225   2.129861
    11  C    4.825791   3.672677   2.388667   2.818607   4.251429
    12  H    5.629067   4.363364   3.241645   3.865401   5.290299
    13  O    5.124170   4.868896   3.678255   2.404596   2.942757
    14  O    3.657080   2.380700   1.360947   2.443190   3.716045
    15  O    3.690897   4.193393   3.719264   2.429088   1.389331
    16  H    4.379994   4.617516   3.842255   2.418914   1.959387
    17  C    6.575202   5.706766   4.291514   3.877808   5.128289
    18  C    7.435985   6.437831   5.069786   4.904914   6.219933
    19  C    7.285417   6.575237   5.178694   4.494874   5.535280
    20  C    8.797176   7.819606   6.440194   6.188375   7.450051
    21  H    7.235624   6.158498   4.881598   4.952306   6.304564
    22  C    8.698168   7.968019   6.561466   5.894007   6.906113
    23  H    6.983723   6.431085   5.102385   4.238226   5.082107
    24  C    9.348324   8.491879   7.078165   6.592931   7.727698
    25  H    9.544038   8.505015   7.168905   7.040042   8.331960
    26  H    9.322623   8.691476   7.309623   6.521265   7.394466
    27  H   10.420162   9.567266   8.153929   7.654329   8.761210
    28  C    5.095468   4.217658   2.800982   2.486859   3.841221
                    6          7          8          9         10
     6  C    0.000000
     7  H    2.122723   0.000000
     8  H    3.446716   2.562907   0.000000
     9  C    3.855242   5.361682   4.561803   0.000000
    10  H    1.079604   2.512194   4.382555   4.702894   0.000000
    11  C    5.093896   5.799474   3.944924   2.383409   6.135711
    12  H    6.049371   6.532539   4.400309   3.419829   7.109070
    13  O    4.353619   6.179410   5.781491   1.365625   4.969851
    14  O    4.211724   4.549313   2.546603   2.774673   5.289970
    15  O    2.415068   4.533206   5.273391   2.967084   2.589228
    16  H    3.246174   5.316606   5.670249   2.422830   3.566314
    17  C    6.365882   7.639937   6.218399   2.558659   7.250038
    18  C    7.377855   8.465914   6.796142   3.734206   8.300739
    19  C    6.869350   8.362257   7.186614   3.063595   7.646980
    20  C    8.669671   9.837670   8.176934   4.914677   9.557185
    21  H    7.334593   8.214594   6.403792   4.016691   8.294030
    22  C    8.261083   9.776674   8.544503   4.453442   9.009697
    23  H    6.429933   8.047972   7.134615   2.872752   7.125347
    24  C    9.042678  10.418383   8.961995   5.192776   9.852553
    25  H    9.502572  10.558022   8.774358   5.840766  10.411210
    26  H    8.771971  10.397039   9.323405   5.091113   9.442884
    27  H   10.090994  11.491286  10.028110   6.246042  10.880161
    28  C    4.979038   6.154561   4.773098   1.408888   5.921514
                   11         12         13         14         15
    11  C    0.000000
    12  H    1.069160   0.000000
    13  O    3.633574   4.606957   0.000000
    14  O    1.404290   1.992234   4.140179   0.000000
    15  O    5.117624   6.186256   2.655026   4.862863   0.000000
    16  H    4.758608   5.816796   1.755575   4.784051   1.005946
    17  C    2.444134   2.816208   2.926921   3.758273   5.391232
    18  C    2.905018   2.815545   4.184190   4.293365   6.583628
    19  C    3.633127   4.066089   2.880767   4.829923   5.489128
    20  C    4.256270   4.062029   5.110510   5.656323   7.664043
    21  H    2.726769   2.434199   4.684486   4.001696   6.840664
    22  C    4.829042   5.061767   4.121997   6.118780   6.754586
    23  H    3.997800   4.608365   2.420655   4.981735   4.872601
    24  C    5.063340   5.052340   5.061131   6.448475   7.712732
    25  H    4.921297   4.545915   6.105412   6.289511   8.609331
    26  H    5.746909   6.042431   4.538264   6.971521   7.070685
    27  H    6.115068   6.040433   6.029499   7.507380   8.681915
    28  C    1.362829   2.222574   2.405712   2.416107   4.370842
                   16         17         18         19         20
    16  H    0.000000
    17  C    4.627624   0.000000
    18  C    5.851840   1.397099   0.000000
    19  C    4.601103   1.406437   2.444344   0.000000
    20  C    6.843137   2.399134   1.397967   2.791093   0.000000
    21  H    6.217041   2.181266   1.081605   3.437050   2.140468
    22  C    5.814520   2.447565   2.839206   1.425340   2.429288
    23  H    3.976105   2.213342   3.454825   1.089628   3.879041
    24  C    6.800208   2.788138   2.445480   2.418026   1.413919
    25  H    7.813940   3.379156   2.144430   3.871709   1.080750
    26  H    6.102353   3.415285   3.924370   2.157603   3.435141
    27  H    7.744461   3.864928   3.407594   3.405163   2.152437
    28  C    3.801344   1.492966   2.488512   2.508528   3.763880
                   21         22         23         24         25
    21  H    0.000000
    22  C    3.915727   0.000000
    23  H    4.376718   2.138610   0.000000
    24  C    3.409159   1.383057   3.376189   0.000000
    25  H    2.449104   3.401529   4.959365   2.163753   0.000000
    26  H    5.000346   1.086312   2.407064   2.178352   4.327452
    27  H    4.274235   2.142523   4.270006   1.078039   2.470060
    28  C    2.735402   3.815707   2.792803   4.281075   4.629356
                   26         27         28
    26  H    0.000000
    27  H    2.528356   0.000000
    28  C    4.663602   5.357640   0.000000
 Stoichiometry    C15H10O3
 Framework group  C1[X(C15H10O3)]
 Deg. of freedom    78
 Full point group                 C1      NOp   1
 Largest Abelian subgroup         C1      NOp   1
 Largest concise Abelian subgroup C1      NOp   1
                         Standard orientation:                         
 ---------------------------------------------------------------------
 Center     Atomic      Atomic             Coordinates (Angstroms)
 Number     Number       Type             X           Y           Z
 ---------------------------------------------------------------------
      1          6           0        4.386859   -0.657062    0.004644
      2          6           0        3.362386   -1.581733    0.169648
      3          6           0        2.006365   -1.172180    0.113300
      4          6           0        1.682318    0.212427   -0.076142
      5          6           0        2.773896    1.138871   -0.187398
      6          6           0        4.123641    0.722125   -0.168824
      7          1           0        5.431600   -0.939755    0.013796
      8          1           0        3.539770   -2.632085    0.368042
      9          6           0        0.277627    0.538111    0.024052
     10          1           0        4.870712    1.485009   -0.328319
     11          6           0       -0.305485   -1.765495    0.208477
     12          1           0       -0.859753   -2.675461    0.297083
     13          8           0       -0.083169    1.843080   -0.154316
     14          8           0        1.048151   -2.105778    0.363098
     15          8           0        2.487808    2.496050   -0.267782
     16          1           0        1.489041    2.616017   -0.267306
     17          6           0       -2.172391   -0.199528    0.018219
     18          6           0       -3.007864   -1.110696   -0.632660
     19          6           0       -2.691458    0.935903    0.665854
     20          6           0       -4.385858   -0.876030   -0.613250
     21          1           0       -2.629309   -1.945602   -1.206679
     22          6           0       -4.087761    1.212311    0.591493
     23          1           0       -2.087998    1.675162    1.191802
     24          6           0       -4.909700    0.322089   -0.075416
     25          1           0       -5.048738   -1.583656   -1.090615
     26          1           0       -4.448350    2.126583    1.054263
     27          1           0       -5.965293    0.518261   -0.172426
     28          6           0       -0.704909   -0.470993    0.060064
 ---------------------------------------------------------------------
 Rotational constants (GHZ):           1.0875861           0.2483808           0.2071814
 Leave Link  202 at Mon Mar 29 16:02:01 2021, MaxMem=   805306368 cpu:               0.1 elap:               0.0
 (Enter /public/home/lyb//g16/l301.exe)
 Standard basis: 6-31G(d) (6D, 7F)
 Ernie: Thresh=  0.10000D-02 Tol=  0.10000D-05 Strict=F.
 There are   290 symmetry adapted cartesian basis functions of A   symmetry.
 There are   290 symmetry adapted basis functions of A   symmetry.
   290 basis functions,   544 primitive gaussians,   290 cartesian basis functions
    62 alpha electrons       62 beta electrons
       nuclear repulsion energy      1194.5872354777 Hartrees.
 IExCor=  402 DFT=T Ex+Corr=B3LYP ExCW=0 ScaHFX=  0.200000
 ScaDFX=  0.800000  0.720000  1.000000  0.810000 ScalE2=  1.000000  1.000000
 IRadAn=      5 IRanWt=     -1 IRanGd=            0 ICorTp=0 IEmpDi=131
 NAtoms=   28 NActive=   28 NUniq=   28 SFac= 1.00D+00 NAtFMM=   60 NAOKFM=F Big=F
 Integral buffers will be    131072 words long.
 Regular integral format.
 Two-electron integral symmetry is turned on.
 R6Disp:  Grimme-D3 Dispersion energy=       -0.0244074452 Hartrees.
 Nuclear repulsion after empirical dispersion term =     1194.5628280325 Hartrees.
 Leave Link  301 at Mon Mar 29 16:02:01 2021, MaxMem=   805306368 cpu:               0.4 elap:               0.1
 (Enter /public/home/lyb//g16/l302.exe)
 NPDir=0 NMtPBC=     1 NCelOv=     1 NCel=       1 NClECP=     1 NCelD=      1
         NCelK=      1 NCelE2=     1 NClLst=     1 CellRange=     0.0.
 One-electron integrals computed using PRISM.
 One-electron integral symmetry used in STVInt
 NBasis=   290 RedAO= T EigKep=  4.32D-04  NBF=   290
 NBsUse=   290 1.00D-06 EigRej= -1.00D+00 NBFU=   290
 Precomputing XC quadrature grid using
 IXCGrd= 4 IRadAn=           5 IRanWt=          -1 IRanGd=           0 AccXCQ= 0.00D+00.
 Generated NRdTot=       0 NPtTot=           0 NUsed=           0 NTot=          32
 NSgBfM=   289   289   289   289   289 MxSgAt=    28 MxSgA2=    28.
 Leave Link  302 at Mon Mar 29 16:02:02 2021, MaxMem=   805306368 cpu:               3.1 elap:               0.4
 (Enter /public/home/lyb//g16/l303.exe)
 DipDrv:  MaxL=1.
 Leave Link  303 at Mon Mar 29 16:02:02 2021, MaxMem=   805306368 cpu:               0.2 elap:               0.1
 (Enter /public/home/lyb//g16/l308.exe)
 Leave Link  308 at Mon Mar 29 16:02:02 2021, MaxMem=   805306368 cpu:               0.3 elap:               0.1
 (Enter /public/home/lyb//g16/l401.exe)
 Initial guess from the checkpoint file:  "gauss.chk"
 B after Tr=     0.000000   -0.000000    0.000000
         Rot=    1.000000    0.000084    0.000038   -0.000011 Ang=   0.01 deg.
 Guess basis will be translated and rotated to current coordinates.
 JPrj=2 DoOrth=T DoCkMO=T.
 Leave Link  401 at Mon Mar 29 16:02:02 2021, MaxMem=   805306368 cpu:               2.0 elap:               0.3
 (Enter /public/home/lyb//g16/l502.exe)
 Integral symmetry usage will be decided dynamically.
 Closed shell SCF:
 Using DIIS extrapolation, IDIIS=  1040.
 NGot=   805306368 LenX=   805132742 LenY=   805048201
 Requested convergence on RMS density matrix=1.00D-08 within 128 cycles.
 Requested convergence on MAX density matrix=1.00D-06.
 Requested convergence on             energy=1.00D-06.
 No special actions if energy rises.
 Fock matrices will be formed incrementally for  20 cycles.

 Cycle   1  Pass 1  IDiag  1:
 FoFJK:  IHMeth= 1 ICntrl=       0 DoSepK=F KAlg= 0 I1Cent=           0 FoldK=F
 IRaf= 790000000 NMat=       1 IRICut=       1 DoRegI=T DoRafI=F ISym2E= 0 IDoP0=0 IntGTp=1.
 FoFCou: FMM=F IPFlag=           0 FMFlag=      100000 FMFlg1=           0
         NFxFlg=           0 DoJE=F BraDBF=F KetDBF=F FulRan=T
         wScrn=  0.000000 ICntrl=         0 IOpCl=  0 I1Cent=           0 NGrid=           0
         NMat0=    1 NMatS0=      1 NMatT0=    0 NMatD0=    1 NMtDS0=    0 NMtDT0=    0
 Symmetry not used in FoFCou.
 E= -803.285581875623    
 DIIS: error= 8.71D-04 at cycle   1 NSaved=   1.
 NSaved= 1 IEnMin= 1 EnMin= -803.285581875623     IErMin= 1 ErrMin= 8.71D-04
 ErrMax= 8.71D-04  0.00D+00 EMaxC= 1.00D-01 BMatC= 7.22D-04 BMatP= 7.22D-04
 IDIUse=3 WtCom= 9.91D-01 WtEn= 8.71D-03
 Coeff-Com:  0.100D+01
 Coeff-En:   0.100D+01
 Coeff:      0.100D+01
 Gap=     0.142 Goal=   None    Shift=    0.000
 RMSDP=2.26D-04 MaxDP=5.23D-03              OVMax= 6.51D-03

 Cycle   2  Pass 1  IDiag  1:
 RMSU=  2.26D-04    CP:  9.99D-01
 E= -803.286486581606     Delta-E=       -0.000904705983 Rises=F Damp=F
 DIIS: error= 7.57D-04 at cycle   2 NSaved=   2.
 NSaved= 2 IEnMin= 2 EnMin= -803.286486581606     IErMin= 2 ErrMin= 7.57D-04
 ErrMax= 7.57D-04  0.00D+00 EMaxC= 1.00D-01 BMatC= 2.38D-04 BMatP= 7.22D-04
 IDIUse=3 WtCom= 9.92D-01 WtEn= 7.57D-03
 Coeff-Com:  0.303D+00 0.697D+00
 Coeff-En:   0.000D+00 0.100D+01
 Coeff:      0.301D+00 0.699D+00
 Gap=     0.141 Goal=   None    Shift=    0.000
 RMSDP=9.18D-05 MaxDP=5.70D-03 DE=-9.05D-04 OVMax= 7.38D-03

 Cycle   3  Pass 1  IDiag  1:
 RMSU=  9.00D-05    CP:  9.99D-01  9.22D-01
 E= -803.286522395842     Delta-E=       -0.000035814237 Rises=F Damp=F
 DIIS: error= 8.43D-04 at cycle   3 NSaved=   3.
 NSaved= 3 IEnMin= 3 EnMin= -803.286522395842     IErMin= 2 ErrMin= 7.57D-04
 ErrMax= 8.43D-04  0.00D+00 EMaxC= 1.00D-01 BMatC= 1.94D-04 BMatP= 2.38D-04
 IDIUse=3 WtCom= 9.92D-01 WtEn= 8.43D-03
 Coeff-Com:  0.931D-02 0.473D+00 0.518D+00
 Coeff-En:   0.000D+00 0.459D+00 0.541D+00
 Coeff:      0.923D-02 0.472D+00 0.518D+00
 Gap=     0.141 Goal=   None    Shift=    0.000
 RMSDP=5.22D-05 MaxDP=3.12D-03 DE=-3.58D-05 OVMax= 4.10D-03

 Cycle   4  Pass 1  IDiag  1:
 RMSU=  1.93D-05    CP:  9.99D-01  9.89D-01  4.88D-01
 E= -803.286677402630     Delta-E=       -0.000155006787 Rises=F Damp=F
 DIIS: error= 1.43D-04 at cycle   4 NSaved=   4.
 NSaved= 4 IEnMin= 4 EnMin= -803.286677402630     IErMin= 4 ErrMin= 1.43D-04
 ErrMax= 1.43D-04  0.00D+00 EMaxC= 1.00D-01 BMatC= 6.40D-06 BMatP= 1.94D-04
 IDIUse=3 WtCom= 9.99D-01 WtEn= 1.43D-03
 Coeff-Com: -0.846D-02 0.195D+00 0.261D+00 0.553D+00
 Coeff-En:   0.000D+00 0.000D+00 0.000D+00 0.100D+01
 Coeff:     -0.845D-02 0.194D+00 0.261D+00 0.553D+00
 Gap=     0.141 Goal=   None    Shift=    0.000
 RMSDP=1.21D-05 MaxDP=3.96D-04 DE=-1.55D-04 OVMax= 8.00D-04

 Cycle   5  Pass 1  IDiag  1:
 RMSU=  7.67D-06    CP:  9.99D-01  9.91D-01  5.25D-01  5.45D-01
 E= -803.286682114469     Delta-E=       -0.000004711840 Rises=F Damp=F
 DIIS: error= 5.60D-05 at cycle   5 NSaved=   5.
 NSaved= 5 IEnMin= 5 EnMin= -803.286682114469     IErMin= 5 ErrMin= 5.60D-05
 ErrMax= 5.60D-05  0.00D+00 EMaxC= 1.00D-01 BMatC= 1.36D-06 BMatP= 6.40D-06
 IDIUse=1 WtCom= 1.00D+00 WtEn= 0.00D+00
 Coeff-Com: -0.604D-02 0.580D-01 0.955D-01 0.345D+00 0.507D+00
 Coeff:     -0.604D-02 0.580D-01 0.955D-01 0.345D+00 0.507D+00
 Gap=     0.141 Goal=   None    Shift=    0.000
 RMSDP=4.69D-06 MaxDP=2.86D-04 DE=-4.71D-06 OVMax= 3.08D-04

 Cycle   6  Pass 1  IDiag  1:
 RMSU=  2.95D-06    CP:  9.99D-01  9.90D-01  5.23D-01  6.42D-01  5.97D-01
 E= -803.286683138946     Delta-E=       -0.000001024477 Rises=F Damp=F
 DIIS: error= 3.21D-05 at cycle   6 NSaved=   6.
 NSaved= 6 IEnMin= 6 EnMin= -803.286683138946     IErMin= 6 ErrMin= 3.21D-05
 ErrMax= 3.21D-05  0.00D+00 EMaxC= 1.00D-01 BMatC= 2.39D-07 BMatP= 1.36D-06
 IDIUse=1 WtCom= 1.00D+00 WtEn= 0.00D+00
 Coeff-Com: -0.348D-02 0.251D-01 0.467D-01 0.200D+00 0.360D+00 0.371D+00
 Coeff:     -0.348D-02 0.251D-01 0.467D-01 0.200D+00 0.360D+00 0.371D+00
 Gap=     0.141 Goal=   None    Shift=    0.000
 RMSDP=1.94D-06 MaxDP=1.31D-04 DE=-1.02D-06 OVMax= 1.21D-04

 Cycle   7  Pass 1  IDiag  1:
 RMSU=  1.10D-06    CP:  9.99D-01  9.90D-01  5.26D-01  6.40D-01  6.57D-01
                    CP:  4.95D-01
 E= -803.286683332844     Delta-E=       -0.000000193898 Rises=F Damp=F
 DIIS: error= 6.56D-06 at cycle   7 NSaved=   7.
 NSaved= 7 IEnMin= 7 EnMin= -803.286683332844     IErMin= 7 ErrMin= 6.56D-06
 ErrMax= 6.56D-06  0.00D+00 EMaxC= 1.00D-01 BMatC= 1.33D-08 BMatP= 2.39D-07
 IDIUse=1 WtCom= 1.00D+00 WtEn= 0.00D+00
 Coeff-Com: -0.137D-02 0.800D-02 0.167D-01 0.790D-01 0.156D+00 0.227D+00
 Coeff-Com:  0.515D+00
 Coeff:     -0.137D-02 0.800D-02 0.167D-01 0.790D-01 0.156D+00 0.227D+00
 Coeff:      0.515D+00
 Gap=     0.141 Goal=   None    Shift=    0.000
 RMSDP=6.01D-07 MaxDP=2.92D-05 DE=-1.94D-07 OVMax= 4.94D-05

 Cycle   8  Pass 1  IDiag  1:
 RMSU=  4.46D-07    CP:  9.99D-01  9.90D-01  5.27D-01  6.40D-01  6.61D-01
                    CP:  5.48D-01  6.65D-01
 E= -803.286683342017     Delta-E=       -0.000000009173 Rises=F Damp=F
 DIIS: error= 2.92D-06 at cycle   8 NSaved=   8.
 NSaved= 8 IEnMin= 8 EnMin= -803.286683342017     IErMin= 8 ErrMin= 2.92D-06
 ErrMax= 2.92D-06  0.00D+00 EMaxC= 1.00D-01 BMatC= 3.91D-09 BMatP= 1.33D-08
 IDIUse=1 WtCom= 1.00D+00 WtEn= 0.00D+00
 Coeff-Com: -0.238D-03 0.775D-04 0.176D-02 0.143D-01 0.366D-01 0.853D-01
 Coeff-Com:  0.376D+00 0.487D+00
 Coeff:     -0.238D-03 0.775D-04 0.176D-02 0.143D-01 0.366D-01 0.853D-01
 Coeff:      0.376D+00 0.487D+00
 Gap=     0.141 Goal=   None    Shift=    0.000
 RMSDP=2.70D-07 MaxDP=1.24D-05 DE=-9.17D-09 OVMax= 2.35D-05

 Cycle   9  Pass 1  IDiag  1:
 RMSU=  1.42D-07    CP:  9.99D-01  9.90D-01  5.27D-01  6.42D-01  6.62D-01
                    CP:  5.48D-01  7.61D-01  5.49D-01
 E= -803.286683345760     Delta-E=       -0.000000003742 Rises=F Damp=F
 DIIS: error= 6.55D-07 at cycle   9 NSaved=   9.
 NSaved= 9 IEnMin= 9 EnMin= -803.286683345760     IErMin= 9 ErrMin= 6.55D-07
 ErrMax= 6.55D-07  0.00D+00 EMaxC= 1.00D-01 BMatC= 2.81D-10 BMatP= 3.91D-09
 IDIUse=1 WtCom= 1.00D+00 WtEn= 0.00D+00
 Coeff-Com:  0.184D-05-0.773D-03-0.722D-03 0.733D-04 0.488D-02 0.268D-01
 Coeff-Com:  0.166D+00 0.285D+00 0.518D+00
 Coeff:      0.184D-05-0.773D-03-0.722D-03 0.733D-04 0.488D-02 0.268D-01
 Coeff:      0.166D+00 0.285D+00 0.518D+00
 Gap=     0.141 Goal=   None    Shift=    0.000
 RMSDP=7.97D-08 MaxDP=3.01D-06 DE=-3.74D-09 OVMax= 8.20D-06

 Cycle  10  Pass 1  IDiag  1:
 RMSU=  5.65D-08    CP:  9.99D-01  9.90D-01  5.27D-01  6.42D-01  6.62D-01
                    CP:  5.50D-01  7.59D-01  6.14D-01  6.71D-01
 E= -803.286683346060     Delta-E=       -0.000000000300 Rises=F Damp=F
 DIIS: error= 2.79D-07 at cycle  10 NSaved=  10.
 NSaved=10 IEnMin=10 EnMin= -803.286683346060     IErMin=10 ErrMin= 2.79D-07
 ErrMax= 2.79D-07  0.00D+00 EMaxC= 1.00D-01 BMatC= 3.39D-11 BMatP= 2.81D-10
 IDIUse=1 WtCom= 1.00D+00 WtEn= 0.00D+00
 Coeff-Com:  0.309D-04-0.433D-03-0.645D-03-0.186D-02-0.224D-02 0.310D-02
 Coeff-Com:  0.390D-01 0.894D-01 0.305D+00 0.569D+00
 Coeff:      0.309D-04-0.433D-03-0.645D-03-0.186D-02-0.224D-02 0.310D-02
 Coeff:      0.390D-01 0.894D-01 0.305D+00 0.569D+00
 Gap=     0.141 Goal=   None    Shift=    0.000
 RMSDP=2.87D-08 MaxDP=8.82D-07 DE=-3.00D-10 OVMax= 2.70D-06

 Cycle  11  Pass 1  IDiag  1:
 RMSU=  1.76D-08    CP:  9.99D-01  9.90D-01  5.27D-01  6.42D-01  6.63D-01
                    CP:  5.52D-01  7.65D-01  6.10D-01  7.33D-01  6.65D-01
 E= -803.286683346077     Delta-E=       -0.000000000017 Rises=F Damp=F
 DIIS: error= 7.15D-08 at cycle  11 NSaved=  11.
 NSaved=11 IEnMin=11 EnMin= -803.286683346077     IErMin=11 ErrMin= 7.15D-08
 ErrMax= 7.15D-08  0.00D+00 EMaxC= 1.00D-01 BMatC= 3.59D-12 BMatP= 3.39D-11
 IDIUse=1 WtCom= 1.00D+00 WtEn= 0.00D+00
 Coeff-Com:  0.181D-04-0.177D-03-0.311D-03-0.110D-02-0.173D-02-0.568D-03
 Coeff-Com:  0.696D-02 0.258D-01 0.128D+00 0.318D+00 0.524D+00
 Coeff:      0.181D-04-0.177D-03-0.311D-03-0.110D-02-0.173D-02-0.568D-03
 Coeff:      0.696D-02 0.258D-01 0.128D+00 0.318D+00 0.524D+00
 Gap=     0.141 Goal=   None    Shift=    0.000
 RMSDP=8.91D-09 MaxDP=4.13D-07 DE=-1.68D-11 OVMax= 9.52D-07

 SCF Done:  E(RB3LYP) =  -803.286683346     A.U. after   11 cycles
            NFock= 11  Conv=0.89D-08     -V/T= 2.0102
 KE= 7.952019670758D+02 PE=-4.257966564700D+03 EE= 1.464915086245D+03
 Leave Link  502 at Mon Mar 29 16:02:39 2021, MaxMem=   805306368 cpu:             292.6 elap:              36.8
 (Enter /public/home/lyb//g16/l801.exe)
 DoSCS=F DFT=T ScalE2(SS,OS)=  1.000000  1.000000
 ExpMin= 1.61D-01 ExpMax= 5.48D+03 ExpMxC= 8.25D+02 IAcc=3 IRadAn=         5 AccDes= 0.00D+00
 HarFok:  IExCor=  205 AccDes= 0.00D+00 IRadAn=         5 IDoV=-2 UseB2=F ITyADJ=14
 ICtDFT= 12500011 ScaDFX=  1.000000  1.000000  1.000000  1.000000
 Largest valence mixing into a core orbital is  5.81D-05
 Largest core mixing into a valence orbital is  1.26D-05
 Range of M.O.s used for correlation:    19   290
 NBasis=   290 NAE=    62 NBE=    62 NFC=    18 NFV=     0
 NROrb=    272 NOA=    44 NOB=    44 NVA=   228 NVB=   228
 Leave Link  801 at Mon Mar 29 16:02:39 2021, MaxMem=   805306368 cpu:               1.1 elap:               0.2
 (Enter /public/home/lyb//g16/l914.exe)
 RHF ground state
 Two-electron integrals replicated using symmetry.
 MDV=   805306368 DFT=T DoStab=F Mixed=T DoRPA=T DoScal=F NonHer=T
 Making orbital integer symmetry assigments:
 Orbital symmetries:
       Occupied  (A) (A) (A) (A) (A) (A) (A) (A) (A) (A) (A) (A)
                 (A) (A) (A) (A) (A) (A) (A) (A) (A) (A) (A) (A)
                 (A) (A) (A) (A) (A) (A) (A) (A) (A) (A) (A) (A)
                 (A) (A) (A) (A) (A) (A) (A) (A) (A) (A) (A) (A)
                 (A) (A) (A) (A) (A) (A) (A) (A) (A) (A) (A) (A)
                 (A) (A)
       Virtual   (A) (A) (A) (A) (A) (A) (A) (A) (A) (A) (A) (A)
                 (A) (A) (A) (A) (A) (A) (A) (A) (A) (A) (A) (A)
                 (A) (A) (A) (A) (A) (A) (A) (A) (A) (A) (A) (A)
                 (A) (A) (A) (A) (A) (A) (A) (A) (A) (A) (A) (A)
                 (A) (A) (A) (A) (A) (A) (A) (A) (A) (A) (A) (A)
                 (A) (A) (A) (A) (A) (A) (A) (A) (A) (A) (A) (A)
                 (A) (A) (A) (A) (A) (A) (A) (A) (A) (A) (A) (A)
                 (A) (A) (A) (A) (A) (A) (A) (A) (A) (A) (A) (A)
                 (A) (A) (A) (A) (A) (A) (A) (A) (A) (A) (A) (A)
                 (A) (A) (A) (A) (A) (A) (A) (A) (A) (A) (A) (A)
                 (A) (A) (A) (A) (A) (A) (A) (A) (A) (A) (A) (A)
                 (A) (A) (A) (A) (A) (A) (A) (A) (A) (A) (A) (A)
                 (A) (A) (A) (A) (A) (A) (A) (A) (A) (A) (A) (A)
                 (A) (A) (A) (A) (A) (A) (A) (A) (A) (A) (A) (A)
                 (A) (A) (A) (A) (A) (A) (A) (A) (A) (A) (A) (A)
                 (A) (A) (A) (A) (A) (A) (A) (A) (A) (A) (A) (A)
                 (A) (A) (A) (A) (A) (A) (A) (A) (A) (A) (A) (A)
                 (A) (A) (A) (A) (A) (A) (A) (A) (A) (A) (A) (A)
                 (A) (A) (A) (A) (A) (A) (A) (A) (A) (A) (A) (A)
    24 initial guesses have been made.
 Convergence on wavefunction:    0.000001000000000
 Davidson Disk Diagonalization:  ConvIn= 1.00D-06 SkipCon=T Conv= 1.00D-06.
 Max sub-space:  2000 roots to seek:    24 dimension of matrix:        20064
 Iteration     1 Dimension    24 NMult     0 NNew     24
 CISAX will form    24 AO SS matrices at one time.
 NMat=    24 NSing=    24 JSym2X= 0.
 FoFJK:  IHMeth= 1 ICntrl=       0 DoSepK=F KAlg= 0 I1Cent=           0 FoldK=F
 IRaf= 790000000 NMat=      48 IRICut=      60 DoRegI=T DoRafI=T ISym2E= 0 IDoP0=0 IntGTp=1.
 FoFCou: FMM=F IPFlag=           0 FMFlag=      100000 FMFlg1=           0
         NFxFlg=           0 DoJE=F BraDBF=F KetDBF=F FulRan=T
         wScrn=  0.000000 ICntrl=         0 IOpCl=  0 I1Cent=           0 NGrid=           0
         NMat0=   48 NMatS0=     24 NMatT0=    0 NMatD0=   48 NMtDS0=    0 NMtDT0=    0
 Symmetry not used in FoFCou.
 Raff kept on since  75.27% of shell-pairs survive, threshold=   0.20 IRatSp=75.
 New state      1 was old state      2
 New state      2 was old state      1
 New state      3 was old state      4
 New state      4 was old state      3
 New state      6 was old state      7
 Excitation Energies [eV] at current iteration:
 Root      1 :     3.312993605908861
 Root      2 :     3.441279634035554
 Root      3 :     3.980789761532360
 Root      4 :     4.148444523766793
 Root      5 :     4.552948777678865
 Root      6 :     4.702455950371072
 Root      7 :     4.971824658721741
 Root      8 :     5.037555221383599
 Root      9 :     5.199905969734922
 Root     10 :     5.437694241503340
 Root     11 :     5.530022915933231
 Root     12 :     5.713958864511530
 Root     13 :     5.786669594304858
 Root     14 :     5.802780003079127
 Root     15 :     6.042273478446702
 Root     16 :     6.079419907502239
 Root     17 :     6.292476969623578
 Root     18 :     6.421330294519741
 Root     19 :     6.642301835876395
 Root     20 :     6.803826615744555
 Root     21 :     7.091767209414469
 Root     22 :     7.574698424790248
 Root     23 :     7.671775035734013
 Root     24 :     8.245544909810118
 Iteration     2 Dimension    36 NMult    24 NNew     12
 CISAX will form    12 AO SS matrices at one time.
 NMat=    12 NSing=    12 JSym2X= 0.
 Root      1 not converged, maximum delta is    0.294400689711600
 Root      2 not converged, maximum delta is    0.201646852602898
 Root      3 not converged, maximum delta is    0.165110213779190
 Root      4 not converged, maximum delta is    0.141905257701496
 Root      5 not converged, maximum delta is    0.169066857971971
 Root      6 not converged, maximum delta is    0.236537435294117
 Excitation Energies [eV] at current iteration:
 Root      1 :     3.234858579585578   Change is   -0.078135026323283
 Root      2 :     3.279334760132378   Change is   -0.161944873903176
 Root      3 :     3.896029986313680   Change is   -0.084759775218680
 Root      4 :     4.088365174124052   Change is   -0.060079349642742
 Root      5 :     4.234296127621688   Change is   -0.318652650057177
 Root      6 :     4.617762580268725   Change is   -0.084693370102348
 Iteration     3 Dimension    48 NMult    36 NNew     12
 CISAX will form    12 AO SS matrices at one time.
 NMat=    12 NSing=    12 JSym2X= 0.
 Root      1 not converged, maximum delta is    0.082720468790670
 Root      2 not converged, maximum delta is    0.087700142432973
 Root      3 not converged, maximum delta is    0.025240939487613
 Root      4 not converged, maximum delta is    0.025766040285528
 Root      5 not converged, maximum delta is    0.016144640286928
 Root      6 not converged, maximum delta is    0.139218957129930
 Excitation Energies [eV] at current iteration:
 Root      1 :     3.225165341715129   Change is   -0.009693237870449
 Root      2 :     3.268740664067842   Change is   -0.010594096064536
 Root      3 :     3.885405741793408   Change is   -0.010624244520272
 Root      4 :     4.083737225872093   Change is   -0.004627948251959
 Root      5 :     4.210105730043842   Change is   -0.024190397577847
 Root      6 :     4.581131483989607   Change is   -0.036631096279118
 Iteration     4 Dimension    60 NMult    48 NNew     12
 CISAX will form    12 AO SS matrices at one time.
 NMat=    12 NSing=    12 JSym2X= 0.
 Root      1 not converged, maximum delta is    0.004776817025124
 Root      2 not converged, maximum delta is    0.006084636926974
 Root      3 not converged, maximum delta is    0.004642330290363
 Root      4 not converged, maximum delta is    0.006717850659764
 Root      5 not converged, maximum delta is    0.008974432054260
 Root      6 not converged, maximum delta is    0.216728456369716
 Excitation Energies [eV] at current iteration:
 Root      1 :     3.224371918284807   Change is   -0.000793423430322
 Root      2 :     3.268220856410990   Change is   -0.000519807656852
 Root      3 :     3.884272136477339   Change is   -0.001133605316069
 Root      4 :     4.083131933849016   Change is   -0.000605292023077
 Root      5 :     4.207125688906863   Change is   -0.002980041136979
 Root      6 :     4.534178084268462   Change is   -0.046953399721144
 Iteration     5 Dimension    72 NMult    60 NNew     12
 CISAX will form    12 AO SS matrices at one time.
 NMat=    12 NSing=    12 JSym2X= 0.
 Root      1 not converged, maximum delta is    0.000401170831935
 Root      2 not converged, maximum delta is    0.000524066307310
 Root      3 not converged, maximum delta is    0.000423524213475
 Root      4 not converged, maximum delta is    0.000684477357918
 Root      5 not converged, maximum delta is    0.001214559449339
 Root      6 not converged, maximum delta is    0.040833932160749
 Excitation Energies [eV] at current iteration:
 Root      1 :     3.224310429645725   Change is   -0.000061488639081
 Root      2 :     3.268181137263747   Change is   -0.000039719147243
 Root      3 :     3.884186462693153   Change is   -0.000085673784186
 Root      4 :     4.083083517691251   Change is   -0.000048416157764
 Root      5 :     4.206806496890520   Change is   -0.000319192016342
 Root      6 :     4.525869311801259   Change is   -0.008308772467204
 Iteration     6 Dimension    84 NMult    72 NNew     12
 CISAX will form    12 AO SS matrices at one time.
 NMat=    12 NSing=    12 JSym2X= 0.
 Root      1 not converged, maximum delta is    0.000079242015952
 Root      2 not converged, maximum delta is    0.000053884183378
 Root      3 not converged, maximum delta is    0.000136553860842
 Root      4 not converged, maximum delta is    0.000110798440446
 Root      5 not converged, maximum delta is    0.000139933354848
 Root      6 not converged, maximum delta is    0.004192903685743
 Excitation Energies [eV] at current iteration:
 Root      1 :     3.224307009384800   Change is   -0.000003420260925
 Root      2 :     3.268178991339893   Change is   -0.000002145923854
 Root      3 :     3.884179543273155   Change is   -0.000006919419998
 Root      4 :     4.083079002793876   Change is   -0.000004514897376
 Root      5 :     4.206791699804934   Change is   -0.000014797085586
 Root      6 :     4.525173408468767   Change is   -0.000695903332492
 Iteration     7 Dimension    96 NMult    84 NNew     12
 CISAX will form    12 AO SS matrices at one time.
 NMat=    12 NSing=    12 JSym2X= 0.
 Root      1 not converged, maximum delta is    0.000013781847193
 Root      2 not converged, maximum delta is    0.000011948345700
 Root      3 not converged, maximum delta is    0.000038146690853
 Root      4 not converged, maximum delta is    0.000027833022753
 Root      5 not converged, maximum delta is    0.000028889464772
 Root      6 not converged, maximum delta is    0.000295519842662
 Excitation Energies [eV] at current iteration:
 Root      1 :     3.224306886571733   Change is   -0.000000122813067
 Root      2 :     3.268178905563940   Change is   -0.000000085775953
 Root      3 :     3.884179256098231   Change is   -0.000000287174925
 Root      4 :     4.083078784048714   Change is   -0.000000218745161
 Root      5 :     4.206790949170424   Change is   -0.000000750634510
 Root      6 :     4.525132982246429   Change is   -0.000040426222338
 Iteration     8 Dimension   108 NMult    96 NNew     12
 CISAX will form    12 AO SS matrices at one time.
 NMat=    12 NSing=    12 JSym2X= 0.
 Root      1 not converged, maximum delta is    0.000002971876924
 Root      2 not converged, maximum delta is    0.000002130495731
 Root      3 not converged, maximum delta is    0.000004538470002
 Root      4 not converged, maximum delta is    0.000004112664867
 Root      5 not converged, maximum delta is    0.000006333264056
 Root      6 not converged, maximum delta is    0.000056919006442
 Excitation Energies [eV] at current iteration:
 Root      1 :     3.224306882601748   Change is   -0.000000003969985
 Root      2 :     3.268178902650035   Change is   -0.000000002913906
 Root      3 :     3.884179242783640   Change is   -0.000000013314590
 Root      4 :     4.083078773570106   Change is   -0.000000010478608
 Root      5 :     4.206790909961119   Change is   -0.000000039209306
 Root      6 :     4.525130709465505   Change is   -0.000002272780924
 Iteration     9 Dimension   120 NMult   108 NNew     12
 CISAX will form    12 AO SS matrices at one time.
 NMat=    12 NSing=    12 JSym2X= 0.
 Root      1 has converged.
 Root      2 has converged.
 Root      3 not converged, maximum delta is    0.000001141820624
 Root      4 not converged, maximum delta is    0.000001139302717
 Root      5 not converged, maximum delta is    0.000002118253671
 Root      6 not converged, maximum delta is    0.000018699841282
 Excitation Energies [eV] at current iteration:
 Root      1 :     3.224306882486607   Change is   -0.000000000115141
 Root      2 :     3.268178902567429   Change is   -0.000000000082606
 Root      3 :     3.884179242170224   Change is   -0.000000000613416
 Root      4 :     4.083078773022187   Change is   -0.000000000547919
 Root      5 :     4.206790907793854   Change is   -0.000000002167264
 Root      6 :     4.525130560678885   Change is   -0.000000148786621
 Iteration    10 Dimension   128 NMult   120 NNew      8
 CISAX will form     8 AO SS matrices at one time.
 NMat=     8 NSing=     8 JSym2X= 0.
 Root      1 has converged.
 Root      2 has converged.
 Root      3 has converged.
 Root      4 has converged.
 Root      5 has converged.
 Root      6 not converged, maximum delta is    0.000005243296620
 Excitation Energies [eV] at current iteration:
 Root      1 :     3.224306882486378   Change is   -0.000000000000229
 Root      2 :     3.268178902567203   Change is   -0.000000000000226
 Root      3 :     3.884179242145102   Change is   -0.000000000025122
 Root      4 :     4.083078772996155   Change is   -0.000000000026033
 Root      5 :     4.206790907675843   Change is   -0.000000000118011
 Root      6 :     4.525130551023549   Change is   -0.000000009655335
 Iteration    11 Dimension   130 NMult   128 NNew      2
 CISAX will form     2 AO SS matrices at one time.
 NMat=     2 NSing=     2 JSym2X= 0.
 Root      1 has converged.
 Root      2 has converged.
 Root      3 has converged.
 Root      4 has converged.
 Root      5 has converged.
 Root      6 not converged, maximum delta is    0.000001519637336
 Excitation Energies [eV] at current iteration:
 Root      1 :     3.224306882486378   Change is    0.000000000000000
 Root      2 :     3.268178902567127   Change is   -0.000000000000076
 Root      3 :     3.884179242144127   Change is   -0.000000000000974
 Root      4 :     4.083078772994564   Change is   -0.000000000001591
 Root      5 :     4.206790907674026   Change is   -0.000000000001817
 Root      6 :     4.525130550418193   Change is   -0.000000000605357
 Iteration    12 Dimension   132 NMult   130 NNew      2
 CISAX will form     2 AO SS matrices at one time.
 NMat=     2 NSing=     2 JSym2X= 0.
 Root      1 has converged.
 Root      2 has converged.
 Root      3 has converged.
 Root      4 has converged.
 Root      5 has converged.
 Root      6 has converged.
 Excitation Energies [eV] at current iteration:
 Root      1 :     3.224306882486378   Change is    0.000000000000000
 Root      2 :     3.268178902567052   Change is   -0.000000000000076
 Root      3 :     3.884179242143916   Change is   -0.000000000000211
 Root      4 :     4.083078772994241   Change is   -0.000000000000322
 Root      5 :     4.206790907673928   Change is   -0.000000000000098
 Root      6 :     4.525130550381022   Change is   -0.000000000037170
 Convergence achieved on expansion vectors.
 ***********************************************************************
 Excited states from <AA,BB:AA,BB> singles matrix:
 ***********************************************************************
 
 1PDM for each excited state written to RWF  633
 Ground to excited state transition densities written to RWF  633
 Ground to excited state transition electric dipole moments (Au):
       state          X           Y           Z        Dip. S.      Osc.
         1         0.0119      0.4648     -0.0641      0.2203      0.0174
         2        -0.0871     -0.3393      0.0556      0.1258      0.0101
         3        -0.1981      0.2040     -0.0263      0.0816      0.0078
         4         0.1152     -0.1027      0.0561      0.0270      0.0027
         5         0.7686      0.3170     -0.0477      0.6936      0.0715
         6        -1.8721      0.2212      0.0061      3.5537      0.3940
 Ground to excited state transition velocity dipole moments (Au):
       state          X           Y           Z        Dip. S.      Osc.
         1         0.0002     -0.0614      0.0069      0.0038      0.0215
         2         0.0118      0.0458     -0.0118      0.0024      0.0132
         3         0.0342     -0.0219      0.0070      0.0017      0.0079
         4        -0.0208      0.0132     -0.0107      0.0007      0.0032
         5        -0.1213     -0.0488      0.0079      0.0172      0.0741
         6         0.3017     -0.0328     -0.0015      0.0921      0.3693
 Ground to excited state transition magnetic dipole moments (Au):
       state          X           Y           Z
         1         0.0578     -0.3873     -0.1957
         2         0.0834     -0.4324      0.2660
         3        -0.0340      0.2200      0.1316
         4        -0.0105     -0.0084     -0.0363
         5        -0.0515     -0.0835     -1.1729
         6         0.0328      0.1977      1.2342
 Ground to excited state transition velocity quadrupole moments (Au):
       state          XX          YY          ZZ          XY          XZ          YZ
         1        -0.0969      0.0260      0.0026     -0.2093      0.0228     -0.0143
         2         0.0461      0.0015     -0.0029      0.2040     -0.0102      0.0041
         3        -0.2223      0.1094      0.0001      0.1389     -0.0347     -0.0320
         4         0.0549     -0.0584     -0.0022     -0.0179      0.0529      0.0210
         5         0.2010     -0.1595      0.0289     -0.2942      0.0229      0.0518
         6         0.5502     -0.0423     -0.0149      0.1567     -0.0580     -0.0514
 <0|del|b> * <b|rxdel|0> + <0|del|b> * <b|delr+rdel|0>
 Rotatory Strengths (R) in cgs (10**-40 erg-esu-cm/Gauss)
       state          XX          YY          ZZ    R(velocity)    E-M Angle
         1        66.8214      0.3082     66.8676     44.6657       33.95
         2       -73.2869      0.8843    -56.9654    -43.1226      151.14
         3        -9.1308     -5.7070    -10.2067     -8.3482      118.36
         4        -0.5384     -0.0485      2.9357      0.7829       61.42
         5       -14.5543    -15.9130     35.4451      1.6593       89.60
         6       -22.3108    -15.3929     44.3118      2.2027       89.77
 1/2[<0|r|b>*<b|rxdel|0> + (<0|rxdel|b>*<b|r|0>)*]
 Rotatory Strengths (R) in cgs (10**-40 erg-esu-cm/Gauss)
       state          XX          YY          ZZ     R(length)
         1        -0.4876    127.3100     -8.8652     39.3191
         2         5.1413   -103.7722    -10.4575    -36.3628
         3        -4.7600    -31.7396      2.4500    -11.3499
         4         0.8563     -0.6079      1.4399      0.5628
         5        28.0011     18.7289    -39.5709      2.3864
         6        43.4749    -30.9162     -5.2826      2.4254
  1/2[<0|del|b>*<b|r|0> + (<0|r|b>*<b|del|0>)*] (Au)
       state          X           Y           Z        Dip. S.   Osc.(frdel)
         1         0.0000     -0.0286     -0.0004      0.0290      0.0193
         2        -0.0010     -0.0156     -0.0007      0.0172      0.0115
         3        -0.0068     -0.0045     -0.0002      0.0114      0.0076
         4        -0.0024     -0.0014     -0.0006      0.0044      0.0029
         5        -0.0933     -0.0155     -0.0004      0.1091      0.0728
         6        -0.5649     -0.0072     -0.0000      0.5721      0.3814

 Excitation energies and oscillator strengths:
 
 Excited State   1:      Singlet-A      3.2243 eV  384.53 nm  f=0.0174  <S**2>=0.000
      58 -> 63         0.18056
      59 -> 63         0.15428
      60 -> 63         0.28975
      61 -> 63         0.19707
      62 -> 63         0.55790
 This state for optimization and/or second-order correction.
 Total Energy, E(TD-HF/TD-DFT) =  -803.168192248    
 Copying the excited state density for this state as the 1-particle RhoCI density.
 
 Excited State   2:      Singlet-A      3.2682 eV  379.37 nm  f=0.0101  <S**2>=0.000
      58 -> 63         0.18978
      59 -> 63         0.22910
      60 -> 63         0.24784
      61 -> 63         0.42531
      62 -> 63        -0.40089
 
 Excited State   3:      Singlet-A      3.8842 eV  319.20 nm  f=0.0078  <S**2>=0.000
      58 -> 63        -0.13113
      59 -> 63        -0.40482
      60 -> 63        -0.22170
      61 -> 63         0.49846
 
 Excited State   4:      Singlet-A      4.0831 eV  303.65 nm  f=0.0027  <S**2>=0.000
      58 -> 63        -0.47519
      59 -> 63        -0.16251
      60 -> 63         0.48764
 
 Excited State   5:      Singlet-A      4.2068 eV  294.72 nm  f=0.0715  <S**2>=0.000
      57 -> 63        -0.10574
      58 -> 63        -0.19454
      59 -> 63         0.20639
      60 -> 63        -0.12478
      62 -> 64         0.60694
 
 Excited State   6:      Singlet-A      4.5251 eV  273.99 nm  f=0.3940  <S**2>=0.000
      58 -> 63        -0.33321
      59 -> 63         0.39266
      59 -> 64        -0.15179
      60 -> 63        -0.17404
      61 -> 63         0.10662
      61 -> 64        -0.22516
      62 -> 64        -0.31495
 SavETr:  write IOETrn=   770 NScale= 10 NData=  16 NLR=1 NState=    6 LETran=     118.
 The selected state is a singlet.
 CISGrd: IGrad=2 NXY=2 DFT=T
 CISAX will form     1 AO SS matrices at one time.
 NMat=     1 NSing=     1 JSym2X= 0.
 Leave Link  914 at Mon Mar 29 16:07:41 2021, MaxMem=   805306368 cpu:            2406.3 elap:             301.7
 (Enter /public/home/lyb//g16/l1002.exe)
 Minotr:  Closed shell wavefunction.
          Computing CIS/TDA/TD derivatives.
          Using Z-Vector for PSCF gradient.
          Skipping F1 and S1 gradient terms here.
          IDoAtm=1111111111111111111111111111
          Frozen-core window.
          Direct CPHF calculation.
          Differentiating once with respect to electric field.
                with respect to dipole field.
          Differentiating once with respect to nuclear coordinates.
          Requested convergence is 1.0D-10 RMS, and 1.0D-09 maximum.
          NewPWx=F KeepS1=T KeepF1=T KeepIn=T MapXYZ=F SortEE=F KeepMc=T.
 Two-electron integral symmetry used by symmetrizing perturbed Fock matrices.
          MDV=     805306368 using IRadAn=       5.
          Solving linear equations separately, MaxMat=     384.
          There are     1 degrees of freedom in the 1st order CPHF.  IDoFFX=0 NUNeed=     1.
 FoFJK:  IHMeth= 1 ICntrl=       0 DoSepK=F KAlg= 0 I1Cent=           0 FoldK=F
 IRaf= 820000000 NMat=       1 IRICut=       1 DoRegI=T DoRafI=F ISym2E=-1 IDoP0=0 IntGTp=1.
 FoFCou: FMM=F IPFlag=           0 FMFlag=      100000 FMFlg1=           0
         NFxFlg=           0 DoJE=F BraDBF=F KetDBF=F FulRan=T
         wScrn=  0.000000 ICntrl=         0 IOpCl=  0 I1Cent=           0 NGrid=           0
         NMat0=    1 NMatS0=      1 NMatT0=    0 NMatD0=    1 NMtDS0=    0 NMtDT0=    0
 Petite list used in FoFCou.
 LinEq1:  Iter=  0 NonCon=     1 RMS=1.09D-02 Max=5.48D-01 NDo=     1
 AX will form     1 AO Fock derivatives at one time.
 LinEq1:  Iter=  1 NonCon=     1 RMS=8.36D-03 Max=4.56D-01 NDo=     1
 LinEq1:  Iter=  2 NonCon=     1 RMS=6.25D-03 Max=2.85D-01 NDo=     1
 LinEq1:  Iter=  3 NonCon=     1 RMS=3.51D-03 Max=1.07D-01 NDo=     1
 LinEq1:  Iter=  4 NonCon=     1 RMS=2.33D-03 Max=5.98D-02 NDo=     1
 LinEq1:  Iter=  5 NonCon=     1 RMS=1.40D-03 Max=4.84D-02 NDo=     1
 LinEq1:  Iter=  6 NonCon=     1 RMS=1.07D-03 Max=3.67D-02 NDo=     1
 LinEq1:  Iter=  7 NonCon=     1 RMS=7.89D-04 Max=2.65D-02 NDo=     1
 LinEq1:  Iter=  8 NonCon=     1 RMS=4.32D-04 Max=1.41D-02 NDo=     1
 LinEq1:  Iter=  9 NonCon=     1 RMS=2.61D-04 Max=9.77D-03 NDo=     1
 LinEq1:  Iter= 10 NonCon=     1 RMS=1.53D-04 Max=5.65D-03 NDo=     1
 LinEq1:  Iter= 11 NonCon=     1 RMS=8.49D-05 Max=3.19D-03 NDo=     1
 LinEq1:  Iter= 12 NonCon=     1 RMS=4.93D-05 Max=1.29D-03 NDo=     1
 LinEq1:  Iter= 13 NonCon=     1 RMS=2.58D-05 Max=7.26D-04 NDo=     1
 LinEq1:  Iter= 14 NonCon=     1 RMS=1.57D-05 Max=3.96D-04 NDo=     1
 LinEq1:  Iter= 15 NonCon=     1 RMS=7.50D-06 Max=1.94D-04 NDo=     1
 LinEq1:  Iter= 16 NonCon=     1 RMS=4.93D-06 Max=1.13D-04 NDo=     1
 LinEq1:  Iter= 17 NonCon=     1 RMS=2.34D-06 Max=7.73D-05 NDo=     1
 LinEq1:  Iter= 18 NonCon=     1 RMS=1.54D-06 Max=5.39D-05 NDo=     1
 LinEq1:  Iter= 19 NonCon=     1 RMS=7.10D-07 Max=1.51D-05 NDo=     1
 LinEq1:  Iter= 20 NonCon=     1 RMS=4.71D-07 Max=1.11D-05 NDo=     1
 LinEq1:  Iter= 21 NonCon=     1 RMS=2.48D-07 Max=5.06D-06 NDo=     1
 LinEq1:  Iter= 22 NonCon=     1 RMS=1.21D-07 Max=3.46D-06 NDo=     1
 LinEq1:  Iter= 23 NonCon=     1 RMS=7.99D-08 Max=1.97D-06 NDo=     1
 LinEq1:  Iter= 24 NonCon=     1 RMS=4.86D-08 Max=1.91D-06 NDo=     1
 LinEq1:  Iter= 25 NonCon=     1 RMS=2.53D-08 Max=5.76D-07 NDo=     1
 LinEq1:  Iter= 26 NonCon=     1 RMS=9.24D-09 Max=1.79D-07 NDo=     1
 LinEq1:  Iter= 27 NonCon=     1 RMS=5.94D-09 Max=1.15D-07 NDo=     1
 LinEq1:  Iter= 28 NonCon=     1 RMS=1.88D-09 Max=2.99D-08 NDo=     1
 LinEq1:  Iter= 29 NonCon=     1 RMS=6.29D-10 Max=1.61D-08 NDo=     1
 LinEq1:  Iter= 30 NonCon=     1 RMS=2.02D-10 Max=4.82D-09 NDo=     1
 LinEq1:  Iter= 31 NonCon=     1 RMS=1.18D-10 Max=3.47D-09 NDo=     1
 LinEq1:  Iter= 32 NonCon=     0 RMS=4.01D-11 Max=8.58D-10 NDo=     1
 Linear equations converged to 1.000D-10 1.000D-09 after    32 iterations.
 End of Minotr F.D. properties file   721 does not exist.
 End of Minotr F.D. properties file   722 does not exist.
 End of Minotr F.D. properties file   788 does not exist.
 Leave Link 1002 at Mon Mar 29 16:10:07 2021, MaxMem=   805306368 cpu:            1160.8 elap:             146.1
 (Enter /public/home/lyb//g16/l601.exe)
 Copying SCF densities to generalized density rwf, IOpCl= 0 IROHF=0.

 **********************************************************************

            Population analysis using the SCF density.

 **********************************************************************

 Orbital symmetries:
       Occupied  (A) (A) (A) (A) (A) (A) (A) (A) (A) (A) (A) (A)
                 (A) (A) (A) (A) (A) (A) (A) (A) (A) (A) (A) (A)
                 (A) (A) (A) (A) (A) (A) (A) (A) (A) (A) (A) (A)
                 (A) (A) (A) (A) (A) (A) (A) (A) (A) (A) (A) (A)
                 (A) (A) (A) (A) (A) (A) (A) (A) (A) (A) (A) (A)
                 (A) (A)
       Virtual   (A) (A) (A) (A) (A) (A) (A) (A) (A) (A) (A) (A)
                 (A) (A) (A) (A) (A) (A) (A) (A) (A) (A) (A) (A)
                 (A) (A) (A) (A) (A) (A) (A) (A) (A) (A) (A) (A)
                 (A) (A) (A) (A) (A) (A) (A) (A) (A) (A) (A) (A)
                 (A) (A) (A) (A) (A) (A) (A) (A) (A) (A) (A) (A)
                 (A) (A) (A) (A) (A) (A) (A) (A) (A) (A) (A) (A)
                 (A) (A) (A) (A) (A) (A) (A) (A) (A) (A) (A) (A)
                 (A) (A) (A) (A) (A) (A) (A) (A) (A) (A) (A) (A)
                 (A) (A) (A) (A) (A) (A) (A) (A) (A) (A) (A) (A)
                 (A) (A) (A) (A) (A) (A) (A) (A) (A) (A) (A) (A)
                 (A) (A) (A) (A) (A) (A) (A) (A) (A) (A) (A) (A)
                 (A) (A) (A) (A) (A) (A) (A) (A) (A) (A) (A) (A)
                 (A) (A) (A) (A) (A) (A) (A) (A) (A) (A) (A) (A)
                 (A) (A) (A) (A) (A) (A) (A) (A) (A) (A) (A) (A)
                 (A) (A) (A) (A) (A) (A) (A) (A) (A) (A) (A) (A)
                 (A) (A) (A) (A) (A) (A) (A) (A) (A) (A) (A) (A)
                 (A) (A) (A) (A) (A) (A) (A) (A) (A) (A) (A) (A)
                 (A) (A) (A) (A) (A) (A) (A) (A) (A) (A) (A) (A)
                 (A) (A) (A) (A) (A) (A) (A) (A) (A) (A) (A) (A)
 The electronic state is 1-A.
 Alpha  occ. eigenvalues --  -19.24385 -19.16110 -19.12717 -10.29204 -10.28439
 Alpha  occ. eigenvalues --  -10.28374 -10.27299 -10.22795 -10.22065 -10.21808
 Alpha  occ. eigenvalues --  -10.21228 -10.20364 -10.20022 -10.19895 -10.19617
 Alpha  occ. eigenvalues --  -10.19429 -10.19398 -10.19342  -1.12211  -1.03315
 Alpha  occ. eigenvalues --   -0.97178  -0.86718  -0.86160  -0.82839  -0.78267
 Alpha  occ. eigenvalues --   -0.76176  -0.74741  -0.73374  -0.68339  -0.65837
 Alpha  occ. eigenvalues --   -0.61593  -0.60530  -0.60015  -0.56080  -0.54569
 Alpha  occ. eigenvalues --   -0.53905  -0.52110  -0.49906  -0.47703  -0.47562
 Alpha  occ. eigenvalues --   -0.46727  -0.45767  -0.44683  -0.43106  -0.42094
 Alpha  occ. eigenvalues --   -0.41610  -0.40495  -0.40265  -0.39872  -0.38075
 Alpha  occ. eigenvalues --   -0.37364  -0.35954  -0.35469  -0.35094  -0.33882
 Alpha  occ. eigenvalues --   -0.33141  -0.29406  -0.25828  -0.25625  -0.24851
 Alpha  occ. eigenvalues --   -0.23968  -0.22082
 Alpha virt. eigenvalues --   -0.07977  -0.04301  -0.00874  -0.00169   0.00830
 Alpha virt. eigenvalues --    0.07458   0.08452   0.09121   0.10089   0.12379
 Alpha virt. eigenvalues --    0.13396   0.14443   0.15196   0.15665   0.16106
 Alpha virt. eigenvalues --    0.16947   0.17802   0.18518   0.19260   0.21031
 Alpha virt. eigenvalues --    0.21480   0.24874   0.27026   0.27705   0.28663
 Alpha virt. eigenvalues --    0.29684   0.30778   0.31974   0.33248   0.34255
 Alpha virt. eigenvalues --    0.36602   0.37511   0.41411   0.43259   0.45054
 Alpha virt. eigenvalues --    0.45848   0.48498   0.49709   0.50854   0.52535
 Alpha virt. eigenvalues --    0.52680   0.52932   0.53523   0.53831   0.55441
 Alpha virt. eigenvalues --    0.56406   0.56975   0.57609   0.57918   0.58976
 Alpha virt. eigenvalues --    0.59265   0.59457   0.59769   0.60095   0.60641
 Alpha virt. eigenvalues --    0.60677   0.61345   0.62305   0.63290   0.63681
 Alpha virt. eigenvalues --    0.64239   0.66125   0.66838   0.67147   0.70722
 Alpha virt. eigenvalues --    0.72060   0.74878   0.75590   0.78774   0.79802
 Alpha virt. eigenvalues --    0.80686   0.82308   0.82731   0.83886   0.84021
 Alpha virt. eigenvalues --    0.84815   0.85691   0.86851   0.89153   0.89818
 Alpha virt. eigenvalues --    0.90646   0.91593   0.93148   0.93757   0.94231
 Alpha virt. eigenvalues --    0.95754   0.96919   0.97777   0.98710   0.99790
 Alpha virt. eigenvalues --    1.02151   1.02934   1.04763   1.05542   1.06425
 Alpha virt. eigenvalues --    1.08143   1.08945   1.10920   1.12741   1.13236
 Alpha virt. eigenvalues --    1.14217   1.16100   1.16955   1.17389   1.19233
 Alpha virt. eigenvalues --    1.23310   1.25663   1.26924   1.28288   1.29035
 Alpha virt. eigenvalues --    1.32123   1.33536   1.36797   1.37834   1.38658
 Alpha virt. eigenvalues --    1.39642   1.40274   1.41810   1.45015   1.45371
 Alpha virt. eigenvalues --    1.46021   1.46440   1.47687   1.50379   1.51139
 Alpha virt. eigenvalues --    1.52809   1.53451   1.57398   1.61729   1.67000
 Alpha virt. eigenvalues --    1.69373   1.70447   1.71977   1.72993   1.75003
 Alpha virt. eigenvalues --    1.75998   1.77867   1.79099   1.80607   1.81557
 Alpha virt. eigenvalues --    1.82269   1.83007   1.83592   1.86254   1.88509
 Alpha virt. eigenvalues --    1.88793   1.89415   1.91544   1.92826   1.93922
 Alpha virt. eigenvalues --    1.94799   1.96245   1.97483   1.98985   2.01535
 Alpha virt. eigenvalues --    2.02948   2.04800   2.05111   2.07106   2.09933
 Alpha virt. eigenvalues --    2.13122   2.13476   2.15570   2.17025   2.17635
 Alpha virt. eigenvalues --    2.18415   2.21776   2.23421   2.26051   2.26722
 Alpha virt. eigenvalues --    2.27681   2.29131   2.29418   2.32083   2.33483
 Alpha virt. eigenvalues --    2.35529   2.36319   2.36983   2.42246   2.44780
 Alpha virt. eigenvalues --    2.47437   2.49862   2.53278   2.57189   2.57216
 Alpha virt. eigenvalues --    2.58916   2.60693   2.61862   2.62479   2.64257
 Alpha virt. eigenvalues --    2.64999   2.69795   2.70566   2.70943   2.72251
 Alpha virt. eigenvalues --    2.74447   2.75377   2.77620   2.81838   2.85682
 Alpha virt. eigenvalues --    2.89575   2.92043   2.94152   2.98769   3.02556
 Alpha virt. eigenvalues --    3.10210   3.19129   3.33063   3.38536   3.44267
 Alpha virt. eigenvalues --    3.97553   4.01075   4.05774   4.07678   4.09587
 Alpha virt. eigenvalues --    4.10537   4.12539   4.16356   4.17528   4.26586
 Alpha virt. eigenvalues --    4.30476   4.33104   4.37550   4.42048   4.52314
 Alpha virt. eigenvalues --    4.57824   4.71893   4.81000
          Condensed to atoms (all electrons):
               1          2          3          4          5          6
     1  C    4.862652   0.527267  -0.006140  -0.031922  -0.004333   0.499034
     2  C    0.527267   5.004755   0.505975  -0.055982  -0.039886  -0.034958
     3  C   -0.006140   0.505975   4.746767   0.373497  -0.015206  -0.036016
     4  C   -0.031922  -0.055982   0.373497   5.332662   0.367046  -0.048309
     5  C   -0.004333  -0.039886  -0.015206   0.367046   4.638838   0.515051
     6  C    0.499034  -0.034958  -0.036016  -0.048309   0.515051   5.003368
     7  H    0.362437  -0.038252   0.003759   0.000354   0.004218  -0.040537
     8  H   -0.039847   0.349989  -0.037302   0.006139   0.000190   0.004139
     9  C   -0.000150   0.005604  -0.032508   0.274366  -0.062654   0.005966
    10  H   -0.039620   0.003846   0.000244   0.006724  -0.030229   0.348429
    11  C   -0.000035   0.001951  -0.034684  -0.027324   0.000097   0.000031
    12  H    0.000003  -0.000333   0.002281   0.000150   0.000014  -0.000000
    13  O   -0.000004  -0.000057   0.004003  -0.076267  -0.007049   0.000279
    14  O    0.002685  -0.052025   0.242416  -0.031853   0.003255   0.000049
    15  O    0.002902   0.000211   0.003680  -0.050396   0.317694  -0.054703
    16  H   -0.000138  -0.000011   0.000310  -0.015233  -0.018542   0.004072
    17  C   -0.000000   0.000004   0.000064   0.009034   0.000018   0.000000
    18  C   -0.000000   0.000000   0.000046  -0.000271  -0.000000   0.000000
    19  C    0.000000  -0.000000  -0.000057   0.000483   0.000005  -0.000000
    20  C    0.000000  -0.000000  -0.000000   0.000002   0.000000  -0.000000
    21  H    0.000000  -0.000000  -0.000012   0.000017   0.000000  -0.000000
    22  C   -0.000000   0.000000   0.000000  -0.000003  -0.000000   0.000000
    23  H    0.000000   0.000000  -0.000020   0.000196   0.000014  -0.000000
    24  C   -0.000000   0.000000   0.000000   0.000000   0.000000   0.000000
    25  H   -0.000000   0.000000   0.000000  -0.000000  -0.000000  -0.000000
    26  H    0.000000  -0.000000  -0.000000  -0.000000   0.000000  -0.000000
    27  H    0.000000  -0.000000  -0.000000   0.000000  -0.000000  -0.000000
    28  C   -0.000019   0.000803  -0.019580  -0.042105   0.009084  -0.000258
               7          8          9         10         11         12
     1  C    0.362437  -0.039847  -0.000150  -0.039620  -0.000035   0.000003
     2  C   -0.038252   0.349989   0.005604   0.003846   0.001951  -0.000333
     3  C    0.003759  -0.037302  -0.032508   0.000244  -0.034684   0.002281
     4  C    0.000354   0.006139   0.274366   0.006724  -0.027324   0.000150
     5  C    0.004218   0.000190  -0.062654  -0.030229   0.000097   0.000014
     6  C   -0.040537   0.004139   0.005966   0.348429   0.000031  -0.000000
     7  H    0.568388  -0.005363   0.000000  -0.004816   0.000001  -0.000000
     8  H   -0.005363   0.578390  -0.000130  -0.000104  -0.000034  -0.000007
     9  C    0.000000  -0.000130   4.850686  -0.000062  -0.039645   0.002712
    10  H   -0.004816  -0.000104  -0.000062   0.558107   0.000000   0.000000
    11  C    0.000001  -0.000034  -0.039645   0.000000   4.972776   0.372629
    12  H   -0.000000  -0.000007   0.002712   0.000000   0.372629   0.509867
    13  O   -0.000000   0.000000   0.403402   0.000006   0.004203  -0.000036
    14  O   -0.000045  -0.000172  -0.025808   0.000001   0.263868  -0.041709
    15  O   -0.000063   0.000002  -0.010500   0.000411  -0.000012  -0.000000
    16  H    0.000003  -0.000000  -0.001643  -0.000010  -0.000074   0.000001
    17  C    0.000000  -0.000000  -0.032555  -0.000000  -0.050131  -0.003885
    18  C   -0.000000   0.000000   0.005912   0.000000  -0.012279   0.005212
    19  C    0.000000  -0.000000  -0.012449  -0.000000   0.004939  -0.000066
    20  C   -0.000000   0.000000  -0.000159  -0.000000   0.000388  -0.000018
    21  H   -0.000000   0.000000  -0.000169   0.000000   0.005464   0.002098
    22  C    0.000000  -0.000000   0.000337  -0.000000  -0.000132  -0.000007
    23  H   -0.000000  -0.000000   0.003983  -0.000000  -0.000223  -0.000003
    24  C   -0.000000  -0.000000   0.000001  -0.000000   0.000013   0.000000
    25  H   -0.000000   0.000000   0.000002   0.000000  -0.000004   0.000003
    26  H   -0.000000   0.000000  -0.000005   0.000000   0.000001   0.000000
    27  H    0.000000  -0.000000   0.000000  -0.000000  -0.000000  -0.000000
    28  C   -0.000000   0.000029   0.298562   0.000001   0.471788  -0.038869
              13         14         15         16         17         18
     1  C   -0.000004   0.002685   0.002902  -0.000138  -0.000000  -0.000000
     2  C   -0.000057  -0.052025   0.000211  -0.000011   0.000004   0.000000
     3  C    0.004003   0.242416   0.003680   0.000310   0.000064   0.000046
     4  C   -0.076267  -0.031853  -0.050396  -0.015233   0.009034  -0.000271
     5  C   -0.007049   0.003255   0.317694  -0.018542   0.000018  -0.000000
     6  C    0.000279   0.000049  -0.054703   0.004072   0.000000   0.000000
     7  H   -0.000000  -0.000045  -0.000063   0.000003   0.000000  -0.000000
     8  H    0.000000  -0.000172   0.000002  -0.000000  -0.000000   0.000000
     9  C    0.403402  -0.025808  -0.010500  -0.001643  -0.032555   0.005912
    10  H    0.000006   0.000001   0.000411  -0.000010  -0.000000   0.000000
    11  C    0.004203   0.263868  -0.000012  -0.000074  -0.050131  -0.012279
    12  H   -0.000036  -0.041709  -0.000000   0.000001  -0.003885   0.005212
    13  O    8.305391   0.000022  -0.033036   0.083236  -0.007495  -0.000110
    14  O    0.000022   8.146020  -0.000007  -0.000000   0.002692   0.000048
    15  O   -0.033036  -0.000007   8.293302   0.195440   0.000003  -0.000000
    16  H    0.083236  -0.000000   0.195440   0.308559   0.000026   0.000001
    17  C   -0.007495   0.002692   0.000003   0.000026   4.753035   0.512193
    18  C   -0.000110   0.000048  -0.000000   0.000001   0.512193   5.000737
    19  C   -0.002110  -0.000028   0.000001  -0.000012   0.535327  -0.057570
    20  C   -0.000006  -0.000001   0.000000  -0.000000  -0.016688   0.516501
    21  H   -0.000003  -0.000048   0.000000   0.000000  -0.043791   0.353165
    22  C    0.000033   0.000000   0.000000  -0.000000  -0.014250  -0.040460
    23  H    0.012244   0.000001   0.000001   0.000006  -0.030671   0.005073
    24  C    0.000002   0.000000  -0.000000   0.000000  -0.034110  -0.037525
    25  H    0.000000  -0.000000   0.000000  -0.000000   0.003897  -0.040091
    26  H   -0.000011  -0.000000   0.000000  -0.000000   0.003613   0.000734
    27  H    0.000000   0.000000   0.000000  -0.000000   0.000384   0.005227
    28  C   -0.078342  -0.016789   0.000109   0.001775   0.317514  -0.045011
              19         20         21         22         23         24
     1  C    0.000000   0.000000   0.000000  -0.000000   0.000000  -0.000000
     2  C   -0.000000  -0.000000  -0.000000   0.000000   0.000000   0.000000
     3  C   -0.000057  -0.000000  -0.000012   0.000000  -0.000020   0.000000
     4  C    0.000483   0.000002   0.000017  -0.000003   0.000196   0.000000
     5  C    0.000005   0.000000   0.000000  -0.000000   0.000014   0.000000
     6  C   -0.000000  -0.000000  -0.000000   0.000000  -0.000000   0.000000
     7  H    0.000000  -0.000000  -0.000000   0.000000  -0.000000  -0.000000
     8  H   -0.000000   0.000000   0.000000  -0.000000  -0.000000  -0.000000
     9  C   -0.012449  -0.000159  -0.000169   0.000337   0.003983   0.000001
    10  H   -0.000000  -0.000000   0.000000  -0.000000  -0.000000  -0.000000
    11  C    0.004939   0.000388   0.005464  -0.000132  -0.000223   0.000013
    12  H   -0.000066  -0.000018   0.002098  -0.000007  -0.000003   0.000000
    13  O   -0.002110  -0.000006  -0.000003   0.000033   0.012244   0.000002
    14  O   -0.000028  -0.000001  -0.000048   0.000000   0.000001   0.000000
    15  O    0.000001   0.000000   0.000000   0.000000   0.000001  -0.000000
    16  H   -0.000012  -0.000000   0.000000  -0.000000   0.000006   0.000000
    17  C    0.535327  -0.016688  -0.043791  -0.014250  -0.030671  -0.034110
    18  C   -0.057570   0.516501   0.353165  -0.040460   0.005073  -0.037525
    19  C    4.973436  -0.041010   0.004955   0.500343   0.351832  -0.038591
    20  C   -0.041010   4.881337  -0.039501  -0.024373   0.000275   0.544825
    21  H    0.004955  -0.039501   0.593114   0.000306  -0.000107   0.004360
    22  C    0.500343  -0.024373   0.000306   4.881636  -0.041572   0.551794
    23  H    0.351832   0.000275  -0.000107  -0.041572   0.547628   0.004720
    24  C   -0.038591   0.544825   0.004360   0.551794   0.004720   4.846949
    25  H    0.000806   0.356612  -0.005308   0.004555   0.000012  -0.041804
    26  H   -0.038327   0.004264   0.000017   0.358830  -0.005052  -0.042475
    27  H    0.005212  -0.044825  -0.000179  -0.045201  -0.000177   0.360513
    28  C   -0.045094   0.005757  -0.009366   0.005556  -0.012889   0.000854
              25         26         27         28
     1  C   -0.000000   0.000000   0.000000  -0.000019
     2  C    0.000000  -0.000000  -0.000000   0.000803
     3  C    0.000000  -0.000000  -0.000000  -0.019580
     4  C   -0.000000  -0.000000   0.000000  -0.042105
     5  C   -0.000000   0.000000  -0.000000   0.009084
     6  C   -0.000000  -0.000000  -0.000000  -0.000258
     7  H   -0.000000  -0.000000   0.000000  -0.000000
     8  H    0.000000   0.000000  -0.000000   0.000029
     9  C    0.000002  -0.000005   0.000000   0.298562
    10  H    0.000000   0.000000  -0.000000   0.000001
    11  C   -0.000004   0.000001  -0.000000   0.471788
    12  H    0.000003   0.000000  -0.000000  -0.038869
    13  O    0.000000  -0.000011   0.000000  -0.078342
    14  O   -0.000000  -0.000000   0.000000  -0.016789
    15  O    0.000000   0.000000   0.000000   0.000109
    16  H   -0.000000  -0.000000  -0.000000   0.001775
    17  C    0.003897   0.003613   0.000384   0.317514
    18  C   -0.040091   0.000734   0.005227  -0.045011
    19  C    0.000806  -0.038327   0.005212  -0.045094
    20  C    0.356612   0.004264  -0.044825   0.005757
    21  H   -0.005308   0.000017  -0.000179  -0.009366
    22  C    0.004555   0.358830  -0.045201   0.005556
    23  H    0.000012  -0.005052  -0.000177  -0.012889
    24  C   -0.041804  -0.042475   0.360513   0.000854
    25  H    0.596606  -0.000161  -0.005808  -0.000218
    26  H   -0.000161   0.585096  -0.005274  -0.000177
    27  H   -0.005808  -0.005274   0.598312   0.000002
    28  C   -0.000218  -0.000177   0.000002   5.181386
 Mulliken charges:
               1
     1  C   -0.134772
     2  C   -0.178901
     3  C    0.298482
     4  C    0.008995
     5  C    0.322375
     6  C   -0.165636
     7  H    0.149915
     8  H    0.144082
     9  C    0.366903
    10  H    0.157072
    11  C    0.066428
    12  H    0.189962
    13  O   -0.608294
    14  O   -0.492572
    15  O   -0.665040
    16  H    0.442235
    17  C    0.095772
    18  C   -0.171532
    19  C   -0.142025
    20  C   -0.143379
    21  H    0.134987
    22  C   -0.137394
    23  H    0.164728
    24  C   -0.119525
    25  H    0.130901
    26  H    0.138926
    27  H    0.131812
    28  C    0.015498
 Sum of Mulliken charges =  -0.00000
 Mulliken charges with hydrogens summed into heavy atoms:
               1
     1  C    0.015143
     2  C   -0.034819
     3  C    0.298482
     4  C    0.008995
     5  C    0.322375
     6  C   -0.008564
     9  C    0.366903
    11  C    0.256390
    13  O   -0.608294
    14  O   -0.492572
    15  O   -0.222806
    17  C    0.095772
    18  C   -0.036545
    19  C    0.022703
    20  C   -0.012478
    22  C    0.001531
    24  C    0.012287
    28  C    0.015498
 Electronic spatial extent (au):  <R**2>=           4987.4225
 Charge=              0.0000 electrons
 Dipole moment (field-independent basis, Debye):
    X=             -0.4954    Y=             -3.8336    Z=              0.3666  Tot=              3.8828
 Quadrupole moment (field-independent basis, Debye-Ang):
   XX=            -85.6963   YY=           -101.1517   ZZ=           -103.4631
   XY=             -3.5535   XZ=              0.4001   YZ=              3.4356
 Traceless Quadrupole moment (field-independent basis, Debye-Ang):
   XX=             11.0741   YY=             -4.3813   ZZ=             -6.6927
   XY=             -3.5535   XZ=              0.4001   YZ=              3.4356
 Octapole moment (field-independent basis, Debye-Ang**2):
  XXX=             20.8604  YYY=            -15.8068  ZZZ=              0.1951  XYY=            -16.0486
  XXY=             -9.1467  XXZ=             -6.3188  XZZ=              0.4973  YZZ=              4.0308
  YYZ=              3.2925  XYZ=            -12.6664
 Hexadecapole moment (field-independent basis, Debye-Ang**3):
 XXXX=          -4733.9089 YYYY=          -1129.1351 ZZZZ=           -189.3812 XXXY=            -73.9539
 XXXZ=             30.3344 YYYX=            -24.5832 YYYZ=              5.7129 ZZZX=             -0.1733
 ZZZY=             -2.2294 XXYY=          -1063.7412 XXZZ=           -986.9586 YYZZ=           -218.5887
 XXYZ=             36.1076 YYXZ=              0.4217 ZZXY=              7.9099
 N-N= 1.194562828033D+03 E-N=-4.257966581801D+03  KE= 7.952019670758D+02
 No NMR shielding tensors so no spin-rotation constants.
 Leave Link  601 at Mon Mar 29 16:10:07 2021, MaxMem=   805306368 cpu:               1.4 elap:               0.2
 (Enter /public/home/lyb//g16/l701.exe)
 ... and contract with generalized density number  6.
 Compute integral first derivatives.
 R6Disp: Adding Grimme-D3 dispersion energy 1st derivatives to the gradient.
 Leave Link  701 at Mon Mar 29 16:10:07 2021, MaxMem=   805306368 cpu:               1.1 elap:               0.2
 (Enter /public/home/lyb//g16/l702.exe)
 L702 exits ... SP integral derivatives will be done elsewhere.
 Leave Link  702 at Mon Mar 29 16:10:08 2021, MaxMem=   805306368 cpu:               0.2 elap:               0.0
 (Enter /public/home/lyb//g16/l703.exe)
 Integral derivatives from FoFJK, PRISM(SPDF).
 Compute integral first derivatives, UseDBF=F ICtDFT=           0.
 Calling FoFJK, ICntrl=  10005127 FMM=F ISym2X=0 I1Cent= 0 IOpClX= 0 NMat=1 NMatS=1 NMatT=0.
 FoFJK:  IHMeth= 1 ICntrl=10005127 DoSepK=F KAlg= 0 I1Cent=           0 FoldK=F
 IRaf=         0 NMat=       1 IRICut=       1 DoRegI=T DoRafI=F ISym2E= 0 IDoP0=0 IntGTp=1.
 FoFCou: FMM=F IPFlag=           0 FMFlag=      100000 FMFlg1=         800
         NFxFlg=           0 DoJE=F BraDBF=F KetDBF=F FulRan=T
         wScrn=  0.000000 ICntrl=  10005127 IOpCl=  0 I1Cent=           0 NGrid=           0
         NMat0=    1 NMatS0=      1 NMatT0=    0 NMatD0=    1 NMtDS0=    0 NMtDT0=    0
 Symmetry not used in FoFCou.
 Leave Link  703 at Mon Mar 29 16:10:20 2021, MaxMem=   805306368 cpu:             100.8 elap:              12.6
 (Enter /public/home/lyb//g16/l716.exe)
 Dipole        = 1.73339396D-01-9.64883813D-01 5.65359002D-02
 ***** Axes restored to original set *****
 -------------------------------------------------------------------
 Center     Atomic                   Forces (Hartrees/Bohr)
 Number     Number              X              Y              Z
 -------------------------------------------------------------------
      1        6          -0.009548885    0.027405695    0.002145824
      2        6           0.014648916   -0.005519830   -0.001680617
      3        6          -0.005990751    0.029662120   -0.007156663
      4        6          -0.013653133   -0.036276925   -0.010942641
      5        6           0.033305712    0.028642023    0.001088245
      6        6           0.015911665   -0.016969095    0.005066091
      7        1          -0.000389870   -0.007085077   -0.001506278
      8        1          -0.004082222   -0.001257428    0.003214864
      9        6           0.018913394    0.065811767    0.021287457
     10        1          -0.005750068   -0.001318781   -0.002440717
     11        6          -0.023191376   -0.016146487   -0.003028147
     12        1           0.011889838   -0.000855015   -0.000108538
     13        8          -0.014983723   -0.030915203   -0.007191949
     14        8          -0.006063490    0.004087102    0.007984127
     15        8          -0.012465963   -0.030931955   -0.000352197
     16        1          -0.000192702   -0.008620933   -0.003241029
     17        6          -0.029528710    0.005420296   -0.004872387
     18        6           0.023340697    0.006984642   -0.003607655
     19        6           0.028148476    0.012427686    0.002344092
     20        6          -0.005434936    0.009846271    0.004329130
     21        1          -0.004829887   -0.002643235   -0.003385048
     22        6          -0.028526520   -0.004109377    0.001013808
     23        1          -0.006282023   -0.009943436    0.003182849
     24        6           0.001458291   -0.012513604   -0.001278789
     25        1           0.003330496   -0.001286024    0.003132020
     26        1           0.003822930   -0.001260201    0.001690571
     27        1           0.006665367    0.000409889   -0.001364800
     28        6           0.009478478   -0.003044886   -0.004321624
 -------------------------------------------------------------------
 Cartesian Forces:  Max     0.065811767 RMS     0.015023390
 Z-matrix is all fixed cartesians, so copy forces.
 Leave Link  716 at Mon Mar 29 16:10:20 2021, MaxMem=   805306368 cpu:               0.3 elap:               0.1
 (Enter /public/home/lyb//g16/l103.exe)

 GradGradGradGradGradGradGradGradGradGradGradGradGradGradGradGradGradGrad
 Berny optimization.
 Search for a local minimum.
 Step number   1 out of a maximum of    2
 All quantities printed in internal units (Hartrees-Bohrs-Radians)
 Second derivative matrix not updated -- first step.
 ITU=  0
     Eigenvalues ---    0.00050   0.00085   0.00157   0.00402   0.00541
     Eigenvalues ---    0.00801   0.01101   0.01428   0.01488   0.01548
     Eigenvalues ---    0.02122   0.02459   0.02757   0.02839   0.03402
     Eigenvalues ---    0.04415   0.04777   0.05234   0.05995   0.06255
     Eigenvalues ---    0.06655   0.06756   0.06988   0.07121   0.07249
     Eigenvalues ---    0.07559   0.08272   0.09270   0.09683   0.10607
     Eigenvalues ---    0.12131   0.12342   0.12498   0.12655   0.13938
     Eigenvalues ---    0.14881   0.16583   0.17881   0.19693   0.23123
     Eigenvalues ---    0.24879   0.25727   0.27625   0.28509   0.29272
     Eigenvalues ---    0.30434   0.33016   0.34811   0.37084   0.41704
     Eigenvalues ---    0.43000   0.44415   0.45732   0.53749   0.58942
     Eigenvalues ---    0.64564   0.68583   0.72200   0.73760   0.89377
     Eigenvalues ---    0.94468   0.98976   1.07004   1.11323   1.14738
     Eigenvalues ---    1.19081   1.20450   1.29491   1.31959   1.36399
     Eigenvalues ---    1.39910   1.44286   1.45248   1.54143   1.55956
     Eigenvalues ---    1.60436   1.68257   1.73356
 Quadratic step=1.678D+00 exceeds max=3.000D-01 adjusted using Lamda=-4.936D-02.
 Angle between NR and scaled steps=  61.89 degrees.
 Angle between quadratic step and forces=  54.24 degrees.
 Linear search not attempted -- first point.
 B after Tr=    -0.001442    0.004014    0.001585
         Rot=    1.000000   -0.000459    0.000058    0.000075 Ang=  -0.05 deg.
 Variable       Old X    -DE/DX   Delta X   Delta X   Delta X     New X
                                 (Linear)    (Quad)   (Total)
    X1       -8.27001  -0.00955   0.00000   0.00366   0.00204  -8.26797
    Y1       -1.16795   0.02741   0.00000   0.03321   0.03844  -1.12951
    Z1        0.01628   0.00215   0.00000   0.00001  -0.00040   0.01588
    X2       -6.33989   0.01465   0.00000   0.00396   0.00212  -6.33777
    Y2       -2.92204  -0.00552   0.00000   0.02030   0.02554  -2.89650
    Z2       -0.29408  -0.00168   0.00000  -0.01270  -0.01451  -0.30859
    X3       -3.77483  -0.00599   0.00000  -0.01757  -0.01930  -3.79413
    Y3       -2.15606   0.02966   0.00000   0.04517   0.04998  -2.10608
    Z3       -0.19133  -0.00716   0.00000  -0.05870  -0.05949  -0.25082
    X4       -3.15384  -0.01365   0.00000   0.01807   0.01668  -3.13716
    Y4        0.45916  -0.03628   0.00000  -0.02070  -0.01632   0.44284
    Z4        0.16131  -0.01094   0.00000  -0.04609  -0.04446   0.11685
    X5       -5.21085   0.03331   0.00000   0.06906   0.06790  -5.14295
    Y5        2.21682   0.02864   0.00000  -0.01558  -0.01113   2.20569
    Z5        0.37021   0.00109   0.00000  -0.00526  -0.00225   0.36796
    X6       -7.76402   0.01591   0.00000   0.06500   0.06373  -7.70029
    Y6        1.43734  -0.01697   0.00000  -0.01495  -0.01012   1.42721
    Z6        0.33886   0.00507   0.00000   0.02635   0.02836   0.36721
    X7      -10.24599  -0.00039   0.00000   0.00977   0.00808 -10.23791
    Y7       -1.69591  -0.00709   0.00000  -0.01628  -0.01073  -1.70664
    Z7        0.00174  -0.00151   0.00000  -0.00617  -0.00734  -0.00560
    X8       -6.68174  -0.00408   0.00000  -0.02504  -0.02714  -6.70888
    Y8       -4.90652  -0.00126   0.00000   0.00889   0.01448  -4.89204
    Z8       -0.66505   0.00321   0.00000   0.04346   0.03978  -0.62527
    X9       -0.49759   0.01891   0.00000   0.01945   0.01817  -0.47941
    Y9        1.06582   0.06581   0.00000   0.06078   0.06484   1.13066
    Z9       -0.03155   0.02129   0.00000   0.05866   0.06123   0.02968
   X10       -9.17092  -0.00575   0.00000   0.02569   0.02460  -9.14632
   Y10        2.88401  -0.00132   0.00000  -0.02822  -0.02342   2.86059
   Z10        0.63889  -0.00244   0.00000  -0.00937  -0.00622   0.63267
   X11        0.59018  -0.02319   0.00000  -0.04954  -0.05143   0.53875
   Y11       -3.29148  -0.01615   0.00000  -0.01735  -0.01307  -3.30455
   Z11       -0.37308  -0.00303   0.00000  -0.00214  -0.00353  -0.37661
   X12        1.63197   0.01189   0.00000   0.03202   0.02989   1.66186
   Y12       -5.01469  -0.00086   0.00000   0.01126   0.01552  -4.99917
   Z12       -0.53831  -0.00011   0.00000  -0.00330  -0.00611  -0.54442
   X13        0.19236  -0.01498   0.00000  -0.05062  -0.05157   0.14079
   Y13        3.53029  -0.03092   0.00000   0.01767   0.02139   3.55167
   Z13        0.30038  -0.00719   0.00000   0.00084   0.00569   0.30607
   X14       -1.97012  -0.00606   0.00000  -0.05140  -0.05336  -2.02348
   Y14       -3.92691   0.00409   0.00000  -0.00013   0.00476  -3.92216
   Z14       -0.66178   0.00798   0.00000   0.03793   0.03569  -0.62610
   X15       -4.66194  -0.01247   0.00000   0.01111   0.01031  -4.65163
   Y15        4.78006  -0.03093   0.00000  -0.07510  -0.07087   4.70918
   Z15        0.51693  -0.00035   0.00000   0.00617   0.01154   0.52846
   X16       -2.77383  -0.00019   0.00000   0.01265   0.01188  -2.76195
   Y16        5.00076  -0.00862   0.00000  -0.11074  -0.10674   4.89402
   Z16        0.51391  -0.00324   0.00000  -0.05710  -0.05135   0.46256
   X17        4.12783  -0.02953   0.00000  -0.03213  -0.03362   4.09421
   Y17       -0.34281   0.00542   0.00000   0.01248   0.01591  -0.32690
   Z17       -0.02215  -0.00487   0.00000  -0.01179  -0.01004  -0.03219
   X18        5.70228   0.02334   0.00000   0.02194   0.02006   5.72234
   Y18       -2.06743   0.00698   0.00000   0.02783   0.02989  -2.03753
   Z18        1.20956  -0.00361   0.00000  -0.02039  -0.02002   1.18954
   X19        5.11443   0.02815   0.00000   0.00449   0.00346   5.11789
   Y19        1.79747   0.01243   0.00000   0.01623   0.02060   1.81807
   Z19       -1.25082   0.00234   0.00000   0.02361   0.02744  -1.22337
   X20        8.30768  -0.00543   0.00000   0.01036   0.00854   8.31621
   Y20       -1.63233   0.00985   0.00000   0.02898   0.03064  -1.60168
   Z20        1.16972   0.00433   0.00000   0.03479   0.03586   1.20558
   X21        4.98289  -0.00483   0.00000  -0.01097  -0.01321   4.96968
   Y21       -3.64090  -0.00264   0.00000  -0.00029   0.00093  -3.63997
   Z21        2.29784  -0.00339   0.00000  -0.06472  -0.06590   2.23193
   X22        7.75483  -0.02853   0.00000  -0.02907  -0.03004   7.72479
   Y22        2.31167  -0.00411   0.00000  -0.01323  -0.00936   2.30231
   Z22       -1.11363   0.00101   0.00000   0.01556   0.02014  -1.09349
   X23        3.97760  -0.00628   0.00000  -0.05004  -0.05076   3.92684
   Y23        3.19627  -0.00994   0.00000  -0.04852  -0.04305   3.15322
   Z23       -2.24624   0.00318   0.00000   0.01946   0.02438  -2.22186
   X24        9.30386   0.00146   0.00000   0.01273   0.01136   9.31522
   Y24        0.62677  -0.01251   0.00000  -0.01919  -0.01669   0.61008
   Z24        0.14832  -0.00128   0.00000  -0.01890  -0.01568   0.13264
   X25        9.55690   0.00333   0.00000   0.01354   0.01142   9.56831
   Y25       -2.97187  -0.00129   0.00000   0.02313   0.02377  -2.94810
   Z25        2.07313   0.00313   0.00000   0.04482   0.04480   2.11792
   X26        8.44094   0.00382   0.00000   0.00765   0.00703   8.44798
   Y26        4.03561  -0.00126   0.00000  -0.02420  -0.01964   4.01597
   Z26       -1.99192   0.00169   0.00000   0.01786   0.02410  -1.96783
   X27       11.29998   0.00667   0.00000   0.02990   0.02858  11.32855
   Y27        0.99147   0.00041   0.00000  -0.01612  -0.01406   0.97741
   Z27        0.32916  -0.00136   0.00000  -0.04680  -0.04302   0.28614
   X28        1.35301   0.00948   0.00000  -0.01386  -0.01542   1.33759
   Y28       -0.84713  -0.00304   0.00000   0.00458   0.00849  -0.83864
   Z28       -0.09778  -0.00432   0.00000  -0.00965  -0.00869  -0.10647
         Item               Value     Threshold  Converged?
 Maximum Force            0.065812     0.000450     NO 
 RMS     Force            0.015023     0.000300     NO 
 Maximum Displacement     0.106736     0.001800     NO 
 RMS     Displacement     0.032584     0.001200     NO 
 Predicted change in Energy=-1.429325D-02
 GradGradGradGradGradGradGradGradGradGradGradGradGradGradGradGradGradGrad

 Leave Link  103 at Mon Mar 29 16:10:20 2021, MaxMem=   805306368 cpu:               0.4 elap:               0.1
 (Enter /public/home/lyb//g16/l9999.exe)
 Electronic transition elements 
                 1             2             3             4             5 
      1  -0.803168D+03 -0.803167D+03 -0.803144D+03 -0.803137D+03 -0.803132D+03
      2  -0.103882D-01  0.860193D-01  0.198790D+00 -0.115555D+00 -0.767588D+00
      3   0.464978D+00 -0.339725D+00  0.203422D+00 -0.102485D+00  0.319573D+00
      4   0.632137D-01 -0.550594D-01  0.257690D-01 -0.558045D-01  0.478219D-01
      5  -0.405764D-03 -0.116218D-01 -0.342405D-01  0.208789D-01  0.121181D+00
      6  -0.614518D-01  0.458819D-01 -0.217706D-01  0.131915D-01 -0.492409D-01
      7  -0.681330D-02  0.117290D-01 -0.689114D-02  0.107058D-01 -0.790038D-02
      8  -0.588743D-01 -0.850391D-01  0.345547D-01  0.105192D-01  0.523140D-01
      9  -0.386759D+00 -0.432646D+00  0.219658D+00 -0.833293D-02 -0.815531D-01
     10   0.196473D+00 -0.265087D+00 -0.132057D+00  0.363041D-01  0.117298D+01
     11  -0.955728D-01  0.447510D-01 -0.223281D+00  0.550916D-01  0.202884D+00
     12   0.247078D-01  0.280076D-02  0.110442D+00 -0.585725D-01 -0.161571D+00
     13   0.250821D-02 -0.282968D-02  0.676638D-04 -0.223609D-02  0.290346D-01
     14   0.209782D+00 -0.204187D+00 -0.137848D+00  0.176547D-01  0.293089D+00
     15   0.225747D-01 -0.990475D-02 -0.341284D-01  0.527800D-01  0.220312D-01
     16   0.139743D-01 -0.392744D-02  0.320171D-01 -0.210587D-01 -0.517827D-01
                 6 
      1  -0.803120D+03
      2   0.187279D+01
      3   0.215192D+00
      4  -0.814767D-02
      5  -0.301845D+00
      6  -0.317952D-01
      7   0.185518D-02
      8  -0.333312D-01
      9   0.195524D+00
     10  -0.123448D+01
     11   0.549102D+00
     12  -0.410919D-01
     13  -0.149927D-01
     14  -0.158659D+00
     15  -0.580445D-01
     16   0.517697D-01
 1\1\GINC-SMP1\Force\RB3LYP TD-FC\6-31G(d)\C15H10O3\LYB\29-Mar-2021\0\\
 #p force b3lyp em=gd3 td=(nstates=6,root=1) 6-31G* guess=read\\This is
  test\\0,1\C,-4.3763013358,-0.6180523961,0.0086124367\C,-3.3549237529,
 -1.5462775112,-0.1556215739\C,-1.9975565676,-1.1409373172,-0.101247700
 2\C,-1.6689383542,0.2429768658,0.0853638624\C,-2.7574638369,1.17308998
 33,0.1959067344\C,-4.1085436435,0.7606055565,0.1793149769\H,-5.4219442
 468,-0.8974372389,0.0009206849\H,-3.5358255709,-2.5964206943,-0.351930
 6145\C,-0.2633106633,0.5640081029,-0.0166947915\H,-4.853040105,1.52615
 25721,0.3380856972\C,0.3123080177,-1.7417752209,-0.1974243922\H,0.8636
 001969,-2.6536599761,-0.2848625897\O,0.1017935585,1.8681463741,0.15895
 59825\O,-1.042542571,-2.0780332628,-0.3501994512\O,-2.4669900401,2.529
 4965053,0.2735453101\H,-1.4678482794,2.6462858411,0.2719485358\C,2.184
 3545441,-0.1814081724,-0.0117211649\C,3.0175182481,-1.0940357552,0.640
 0727628\C,2.7064397299,0.9511791962,-0.6619037116\C,4.3962328443,-0.86
 37900592,0.6189890855\H,2.6368326506,-1.9266816906,1.2159623289\C,4.10
 36811057,1.2232814657,-0.5893093005\H,2.1048553412,1.691390805,-1.1886
 602744\C,4.9233922578,0.3316715133,0.0784880377\H,5.0572934927,-1.5726
 455768,1.0970517335\H,4.4667543518,2.135553142,-1.0540796579\H,5.97969
 03308,0.5246617754,0.1741856307\C,0.7159795264,-0.4482801075,-0.051743
 7565\\Version=EM64L-G16RevA.03\State=1-A\HF=-803.2866833\RMSD=8.906e-0
 9\RMSF=1.502e-02\Dipole=-0.176457,-0.9644295,-0.0546112\PG=C01 [X(C15H
 10O3)]\\@


 O WAD SOME POWER THE GIFTIE GIE US       
 TO SEE OURSELS AS OTHERS SEE US.....     
 IT WOULD FRAE MONIE A BLUNDER FREE US,   
                     AND FOOLISH NOTION...
 WHAT AIRS IN DRESS AND GAIT WAD LEA'E US,
                     AND EV'N DEVOTION....
                                          
              (ROBERT BURNS 'TO A LOUSE') 
 Job cpu time:       0 days  1 hours  6 minutes 12.6 seconds.
 Elapsed time:       0 days  0 hours  8 minutes 19.1 seconds.
 File lengths (MBytes):  RWF=    572 Int=      0 D2E=      0 Chk=     37 Scr=      1
 Normal termination of Gaussian 16 at Mon Mar 29 16:10:20 2021.
